+ 1 0 1 tcp 1000 ------- 0 0.0 1.0 0 0
- 1 0 1 tcp 1000 ------- 0 0.0 1.0 0 0
r 1.018 0 1 tcp 1000 ------- 0 0.0 1.0 0 0
+ 1.018 1 0 ack 40 ------- 0 1.0 0.0 0 1
- 1.018 1 0 ack 40 ------- 0 1.0 0.0 0 1
r 1.02832 1 0 ack 40 ------- 0 1.0 0.0 0 1
+ 1.02832 0 1 tcp 1000 ------- 0 0.0 1.0 1 2
- 1.02832 0 1 tcp 1000 ------- 0 0.0 1.0 1 2
r 1.04632 0 1 tcp 1000 ------- 0 0.0 1.0 1 2
+ 1.04632 1 0 ack 40 ------- 0 1.0 0.0 1 3
- 1.04632 1 0 ack 40 ------- 0 1.0 0.0 1 3
r 1.05664 1 0 ack 40 ------- 0 1.0 0.0 1 3
+ 1.05664 0 1 tcp 1000 ------- 0 0.0 1.0 2 4
- 1.05664 0 1 tcp 1000 ------- 0 0.0 1.0 2 4
+ 1.05664 0 1 tcp 1000 ------- 0 0.0 1.0 3 5
+ 1.05664 0 1 tcp 1000 ------- 0 0.0 1.0 4 6
- 1.06464 0 1 tcp 1000 ------- 0 0.0 1.0 3 5
- 1.07264 0 1 tcp 1000 ------- 0 0.0 1.0 4 6
r 1.07464 0 1 tcp 1000 ------- 0 0.0 1.0 2 4
+ 1.07464 1 0 ack 40 ------- 0 1.0 0.0 2 7
- 1.07464 1 0 ack 40 ------- 0 1.0 0.0 2 7
r 1.08264 0 1 tcp 1000 ------- 0 0.0 1.0 3 5
+ 1.08264 1 0 ack 40 ------- 0 1.0 0.0 3 8
- 1.08264 1 0 ack 40 ------- 0 1.0 0.0 3 8
r 1.08496 1 0 ack 40 ------- 0 1.0 0.0 2 7
+ 1.08496 0 1 tcp 1000 ------- 0 0.0 1.0 5 9
- 1.08496 0 1 tcp 1000 ------- 0 0.0 1.0 5 9
r 1.09064 0 1 tcp 1000 ------- 0 0.0 1.0 4 6
+ 1.09064 1 0 ack 40 ------- 0 1.0 0.0 4 10
- 1.09064 1 0 ack 40 ------- 0 1.0 0.0 4 10
r 1.09296 1 0 ack 40 ------- 0 1.0 0.0 3 8
+ 1.09296 0 1 tcp 1000 ------- 0 0.0 1.0 6 11
- 1.09296 0 1 tcp 1000 ------- 0 0.0 1.0 6 11
r 1.10096 1 0 ack 40 ------- 0 1.0 0.0 4 10
+ 1.10096 0 1 tcp 1000 ------- 0 0.0 1.0 7 12
- 1.10096 0 1 tcp 1000 ------- 0 0.0 1.0 7 12
r 1.10296 0 1 tcp 1000 ------- 0 0.0 1.0 5 9
+ 1.10296 1 0 ack 40 ------- 0 1.0 0.0 5 13
- 1.10296 1 0 ack 40 ------- 0 1.0 0.0 5 13
r 1.11096 0 1 tcp 1000 ------- 0 0.0 1.0 6 11
+ 1.11096 1 0 ack 40 ------- 0 1.0 0.0 6 14
- 1.11096 1 0 ack 40 ------- 0 1.0 0.0 6 14
r 1.11328 1 0 ack 40 ------- 0 1.0 0.0 5 13
+ 1.11328 0 1 tcp 1000 ------- 0 0.0 1.0 8 15
- 1.11328 0 1 tcp 1000 ------- 0 0.0 1.0 8 15
+ 1.11328 0 1 tcp 1000 ------- 0 0.0 1.0 9 16
r 1.11896 0 1 tcp 1000 ------- 0 0.0 1.0 7 12
+ 1.11896 1 0 ack 40 ------- 0 1.0 0.0 7 17
- 1.11896 1 0 ack 40 ------- 0 1.0 0.0 7 17
r 1.12128 1 0 ack 40 ------- 0 1.0 0.0 6 14
+ 1.12128 0 1 tcp 1000 ------- 0 0.0 1.0 10 18
+ 1.12128 0 1 tcp 1000 ------- 0 0.0 1.0 11 19
- 1.12128 0 1 tcp 1000 ------- 0 0.0 1.0 9 16
r 1.12928 1 0 ack 40 ------- 0 1.0 0.0 7 17
+ 1.12928 0 1 tcp 1000 ------- 0 0.0 1.0 12 20
+ 1.12928 0 1 tcp 1000 ------- 0 0.0 1.0 13 21
- 1.12928 0 1 tcp 1000 ------- 0 0.0 1.0 10 18
r 1.13128 0 1 tcp 1000 ------- 0 0.0 1.0 8 15
+ 1.13128 1 0 ack 40 ------- 0 1.0 0.0 8 22
- 1.13128 1 0 ack 40 ------- 0 1.0 0.0 8 22
- 1.13728 0 1 tcp 1000 ------- 0 0.0 1.0 11 19
r 1.13928 0 1 tcp 1000 ------- 0 0.0 1.0 9 16
+ 1.13928 1 0 ack 40 ------- 0 1.0 0.0 9 23
- 1.13928 1 0 ack 40 ------- 0 1.0 0.0 9 23
r 1.1416 1 0 ack 40 ------- 0 1.0 0.0 8 22
+ 1.1416 0 1 tcp 1000 ------- 0 0.0 1.0 14 24
- 1.14528 0 1 tcp 1000 ------- 0 0.0 1.0 12 20
r 1.14728 0 1 tcp 1000 ------- 0 0.0 1.0 10 18
+ 1.14728 1 0 ack 40 ------- 0 1.0 0.0 10 25
- 1.14728 1 0 ack 40 ------- 0 1.0 0.0 10 25
r 1.1496 1 0 ack 40 ------- 0 1.0 0.0 9 23
+ 1.1496 0 1 tcp 1000 ------- 0 0.0 1.0 15 26
- 1.15328 0 1 tcp 1000 ------- 0 0.0 1.0 13 21
r 1.15528 0 1 tcp 1000 ------- 0 0.0 1.0 11 19
+ 1.15528 1 0 ack 40 ------- 0 1.0 0.0 11 27
- 1.15528 1 0 ack 40 ------- 0 1.0 0.0 11 27
r 1.1576 1 0 ack 40 ------- 0 1.0 0.0 10 25
+ 1.1576 0 1 tcp 1000 ------- 0 0.0 1.0 16 28
- 1.16128 0 1 tcp 1000 ------- 0 0.0 1.0 14 24
r 1.16328 0 1 tcp 1000 ------- 0 0.0 1.0 12 20
+ 1.16328 1 0 ack 40 ------- 0 1.0 0.0 12 29
- 1.16328 1 0 ack 40 ------- 0 1.0 0.0 12 29
r 1.1656 1 0 ack 40 ------- 0 1.0 0.0 11 27
+ 1.1656 0 1 tcp 1000 ------- 0 0.0 1.0 17 30
- 1.16928 0 1 tcp 1000 ------- 0 0.0 1.0 15 26
r 1.17128 0 1 tcp 1000 ------- 0 0.0 1.0 13 21
+ 1.17128 1 0 ack 40 ------- 0 1.0 0.0 13 31
- 1.17128 1 0 ack 40 ------- 0 1.0 0.0 13 31
r 1.1736 1 0 ack 40 ------- 0 1.0 0.0 12 29
+ 1.1736 0 1 tcp 1000 ------- 0 0.0 1.0 18 32
- 1.17728 0 1 tcp 1000 ------- 0 0.0 1.0 16 28
r 1.17928 0 1 tcp 1000 ------- 0 0.0 1.0 14 24
+ 1.17928 1 0 ack 40 ------- 0 1.0 0.0 14 33
- 1.17928 1 0 ack 40 ------- 0 1.0 0.0 14 33
r 1.1816 1 0 ack 40 ------- 0 1.0 0.0 13 31
+ 1.1816 0 1 tcp 1000 ------- 0 0.0 1.0 19 34
- 1.18528 0 1 tcp 1000 ------- 0 0.0 1.0 17 30
r 1.18728 0 1 tcp 1000 ------- 0 0.0 1.0 15 26
+ 1.18728 1 0 ack 40 ------- 0 1.0 0.0 15 35
- 1.18728 1 0 ack 40 ------- 0 1.0 0.0 15 35
r 1.1896 1 0 ack 40 ------- 0 1.0 0.0 14 33
- 1.19328 0 1 tcp 1000 ------- 0 0.0 1.0 18 32
r 1.19528 0 1 tcp 1000 ------- 0 0.0 1.0 16 28
+ 1.19528 1 0 ack 40 ------- 0 1.0 0.0 16 36
- 1.19528 1 0 ack 40 ------- 0 1.0 0.0 16 36
r 1.1976 1 0 ack 40 ------- 0 1.0 0.0 15 35
+ 1.1976 0 1 tcp 1000 ------- 0 0.0 1.0 20 37
- 1.20128 0 1 tcp 1000 ------- 0 0.0 1.0 19 34
r 1.20328 0 1 tcp 1000 ------- 0 0.0 1.0 17 30
+ 1.20328 1 0 ack 40 ------- 0 1.0 0.0 17 38
- 1.20328 1 0 ack 40 ------- 0 1.0 0.0 17 38
r 1.2056 1 0 ack 40 ------- 0 1.0 0.0 16 36
+ 1.2056 0 1 tcp 1000 ------- 0 0.0 1.0 21 39
- 1.20928 0 1 tcp 1000 ------- 0 0.0 1.0 20 37
r 1.21128 0 1 tcp 1000 ------- 0 0.0 1.0 18 32
+ 1.21128 1 0 ack 40 ------- 0 1.0 0.0 18 40
- 1.21128 1 0 ack 40 ------- 0 1.0 0.0 18 40
r 1.2136 1 0 ack 40 ------- 0 1.0 0.0 17 38
+ 1.2136 0 1 tcp 1000 ------- 0 0.0 1.0 22 41
- 1.21728 0 1 tcp 1000 ------- 0 0.0 1.0 21 39
r 1.21928 0 1 tcp 1000 ------- 0 0.0 1.0 19 34
+ 1.21928 1 0 ack 40 ------- 0 1.0 0.0 19 42
- 1.21928 1 0 ack 40 ------- 0 1.0 0.0 19 42
r 1.2216 1 0 ack 40 ------- 0 1.0 0.0 18 40
+ 1.2216 0 1 tcp 1000 ------- 0 0.0 1.0 23 43
- 1.22528 0 1 tcp 1000 ------- 0 0.0 1.0 22 41
r 1.22728 0 1 tcp 1000 ------- 0 0.0 1.0 20 37
+ 1.22728 1 0 ack 40 ------- 0 1.0 0.0 20 44
- 1.22728 1 0 ack 40 ------- 0 1.0 0.0 20 44
r 1.2296 1 0 ack 40 ------- 0 1.0 0.0 19 42
+ 1.2296 0 1 tcp 1000 ------- 0 0.0 1.0 24 45
- 1.23328 0 1 tcp 1000 ------- 0 0.0 1.0 23 43
r 1.23528 0 1 tcp 1000 ------- 0 0.0 1.0 21 39
+ 1.23528 1 0 ack 40 ------- 0 1.0 0.0 21 46
- 1.23528 1 0 ack 40 ------- 0 1.0 0.0 21 46
r 1.2376 1 0 ack 40 ------- 0 1.0 0.0 20 44
+ 1.2376 0 1 tcp 1000 ------- 0 0.0 1.0 25 47
- 1.24128 0 1 tcp 1000 ------- 0 0.0 1.0 24 45
r 1.24328 0 1 tcp 1000 ------- 0 0.0 1.0 22 41
+ 1.24328 1 0 ack 40 ------- 0 1.0 0.0 22 48
- 1.24328 1 0 ack 40 ------- 0 1.0 0.0 22 48
r 1.2456 1 0 ack 40 ------- 0 1.0 0.0 21 46
+ 1.2456 0 1 tcp 1000 ------- 0 0.0 1.0 26 49
- 1.24928 0 1 tcp 1000 ------- 0 0.0 1.0 25 47
r 1.25128 0 1 tcp 1000 ------- 0 0.0 1.0 23 43
+ 1.25128 1 0 ack 40 ------- 0 1.0 0.0 23 50
- 1.25128 1 0 ack 40 ------- 0 1.0 0.0 23 50
r 1.2536 1 0 ack 40 ------- 0 1.0 0.0 22 48
+ 1.2536 0 1 tcp 1000 ------- 0 0.0 1.0 27 51
- 1.25728 0 1 tcp 1000 ------- 0 0.0 1.0 26 49
r 1.25928 0 1 tcp 1000 ------- 0 0.0 1.0 24 45
+ 1.25928 1 0 ack 40 ------- 0 1.0 0.0 24 52
- 1.25928 1 0 ack 40 ------- 0 1.0 0.0 24 52
r 1.2616 1 0 ack 40 ------- 0 1.0 0.0 23 50
+ 1.2616 0 1 tcp 1000 ------- 0 0.0 1.0 28 53
- 1.26528 0 1 tcp 1000 ------- 0 0.0 1.0 27 51
r 1.26728 0 1 tcp 1000 ------- 0 0.0 1.0 25 47
+ 1.26728 1 0 ack 40 ------- 0 1.0 0.0 25 54
- 1.26728 1 0 ack 40 ------- 0 1.0 0.0 25 54
r 1.2696 1 0 ack 40 ------- 0 1.0 0.0 24 52
+ 1.2696 0 1 tcp 1000 ------- 0 0.0 1.0 29 55
- 1.27328 0 1 tcp 1000 ------- 0 0.0 1.0 28 53
r 1.27528 0 1 tcp 1000 ------- 0 0.0 1.0 26 49
+ 1.27528 1 0 ack 40 ------- 0 1.0 0.0 26 56
- 1.27528 1 0 ack 40 ------- 0 1.0 0.0 26 56
r 1.2776 1 0 ack 40 ------- 0 1.0 0.0 25 54
+ 1.2776 0 1 tcp 1000 ------- 0 0.0 1.0 30 57
- 1.28128 0 1 tcp 1000 ------- 0 0.0 1.0 29 55
r 1.28328 0 1 tcp 1000 ------- 0 0.0 1.0 27 51
+ 1.28328 1 0 ack 40 ------- 0 1.0 0.0 27 58
- 1.28328 1 0 ack 40 ------- 0 1.0 0.0 27 58
r 1.2856 1 0 ack 40 ------- 0 1.0 0.0 26 56
+ 1.2856 0 1 tcp 1000 ------- 0 0.0 1.0 31 59
- 1.28928 0 1 tcp 1000 ------- 0 0.0 1.0 30 57
r 1.29128 0 1 tcp 1000 ------- 0 0.0 1.0 28 53
+ 1.29128 1 0 ack 40 ------- 0 1.0 0.0 28 60
- 1.29128 1 0 ack 40 ------- 0 1.0 0.0 28 60
r 1.2936 1 0 ack 40 ------- 0 1.0 0.0 27 58
+ 1.2936 0 1 tcp 1000 ------- 0 0.0 1.0 32 61
- 1.29728 0 1 tcp 1000 ------- 0 0.0 1.0 31 59
r 1.29928 0 1 tcp 1000 ------- 0 0.0 1.0 29 55
+ 1.29928 1 0 ack 40 ------- 0 1.0 0.0 29 62
- 1.29928 1 0 ack 40 ------- 0 1.0 0.0 29 62
r 1.3016 1 0 ack 40 ------- 0 1.0 0.0 28 60
+ 1.3016 0 1 tcp 1000 ------- 0 0.0 1.0 33 63
- 1.30528 0 1 tcp 1000 ------- 0 0.0 1.0 32 61
r 1.30728 0 1 tcp 1000 ------- 0 0.0 1.0 30 57
+ 1.30728 1 0 ack 40 ------- 0 1.0 0.0 30 64
- 1.30728 1 0 ack 40 ------- 0 1.0 0.0 30 64
r 1.3096 1 0 ack 40 ------- 0 1.0 0.0 29 62
+ 1.3096 0 1 tcp 1000 ------- 0 0.0 1.0 34 65
- 1.31328 0 1 tcp 1000 ------- 0 0.0 1.0 33 63
r 1.31528 0 1 tcp 1000 ------- 0 0.0 1.0 31 59
+ 1.31528 1 0 ack 40 ------- 0 1.0 0.0 31 66
- 1.31528 1 0 ack 40 ------- 0 1.0 0.0 31 66
r 1.3176 1 0 ack 40 ------- 0 1.0 0.0 30 64
+ 1.3176 0 1 tcp 1000 ------- 0 0.0 1.0 35 67
- 1.32128 0 1 tcp 1000 ------- 0 0.0 1.0 34 65
r 1.32328 0 1 tcp 1000 ------- 0 0.0 1.0 32 61
+ 1.32328 1 0 ack 40 ------- 0 1.0 0.0 32 68
- 1.32328 1 0 ack 40 ------- 0 1.0 0.0 32 68
r 1.3256 1 0 ack 40 ------- 0 1.0 0.0 31 66
+ 1.3256 0 1 tcp 1000 ------- 0 0.0 1.0 36 69
- 1.32928 0 1 tcp 1000 ------- 0 0.0 1.0 35 67
r 1.33128 0 1 tcp 1000 ------- 0 0.0 1.0 33 63
+ 1.33128 1 0 ack 40 ------- 0 1.0 0.0 33 70
- 1.33128 1 0 ack 40 ------- 0 1.0 0.0 33 70
r 1.3336 1 0 ack 40 ------- 0 1.0 0.0 32 68
+ 1.3336 0 1 tcp 1000 ------- 0 0.0 1.0 37 71
- 1.33728 0 1 tcp 1000 ------- 0 0.0 1.0 36 69
r 1.33928 0 1 tcp 1000 ------- 0 0.0 1.0 34 65
+ 1.33928 1 0 ack 40 ------- 0 1.0 0.0 34 72
- 1.33928 1 0 ack 40 ------- 0 1.0 0.0 34 72
r 1.3416 1 0 ack 40 ------- 0 1.0 0.0 33 70
+ 1.3416 0 1 tcp 1000 ------- 0 0.0 1.0 38 73
- 1.34528 0 1 tcp 1000 ------- 0 0.0 1.0 37 71
r 1.34728 0 1 tcp 1000 ------- 0 0.0 1.0 35 67
+ 1.34728 1 0 ack 40 ------- 0 1.0 0.0 35 74
- 1.34728 1 0 ack 40 ------- 0 1.0 0.0 35 74
r 1.3496 1 0 ack 40 ------- 0 1.0 0.0 34 72
+ 1.3496 0 1 tcp 1000 ------- 0 0.0 1.0 39 75
- 1.35328 0 1 tcp 1000 ------- 0 0.0 1.0 38 73
r 1.35528 0 1 tcp 1000 ------- 0 0.0 1.0 36 69
+ 1.35528 1 0 ack 40 ------- 0 1.0 0.0 36 76
- 1.35528 1 0 ack 40 ------- 0 1.0 0.0 36 76
r 1.3576 1 0 ack 40 ------- 0 1.0 0.0 35 74
+ 1.3576 0 1 tcp 1000 ------- 0 0.0 1.0 40 77
- 1.36128 0 1 tcp 1000 ------- 0 0.0 1.0 39 75
r 1.36328 0 1 tcp 1000 ------- 0 0.0 1.0 37 71
+ 1.36328 1 0 ack 40 ------- 0 1.0 0.0 37 78
- 1.36328 1 0 ack 40 ------- 0 1.0 0.0 37 78
r 1.3656 1 0 ack 40 ------- 0 1.0 0.0 36 76
+ 1.3656 0 1 tcp 1000 ------- 0 0.0 1.0 41 79
- 1.36928 0 1 tcp 1000 ------- 0 0.0 1.0 40 77
r 1.37128 0 1 tcp 1000 ------- 0 0.0 1.0 38 73
+ 1.37128 1 0 ack 40 ------- 0 1.0 0.0 38 80
- 1.37128 1 0 ack 40 ------- 0 1.0 0.0 38 80
r 1.3736 1 0 ack 40 ------- 0 1.0 0.0 37 78
+ 1.3736 0 1 tcp 1000 ------- 0 0.0 1.0 42 81
- 1.37728 0 1 tcp 1000 ------- 0 0.0 1.0 41 79
r 1.37928 0 1 tcp 1000 ------- 0 0.0 1.0 39 75
+ 1.37928 1 0 ack 40 ------- 0 1.0 0.0 39 82
- 1.37928 1 0 ack 40 ------- 0 1.0 0.0 39 82
r 1.3816 1 0 ack 40 ------- 0 1.0 0.0 38 80
+ 1.3816 0 1 tcp 1000 ------- 0 0.0 1.0 43 83
- 1.38528 0 1 tcp 1000 ------- 0 0.0 1.0 42 81
r 1.38728 0 1 tcp 1000 ------- 0 0.0 1.0 40 77
+ 1.38728 1 0 ack 40 ------- 0 1.0 0.0 40 84
- 1.38728 1 0 ack 40 ------- 0 1.0 0.0 40 84
r 1.3896 1 0 ack 40 ------- 0 1.0 0.0 39 82
+ 1.3896 0 1 tcp 1000 ------- 0 0.0 1.0 44 85
- 1.39328 0 1 tcp 1000 ------- 0 0.0 1.0 43 83
r 1.39528 0 1 tcp 1000 ------- 0 0.0 1.0 41 79
+ 1.39528 1 0 ack 40 ------- 0 1.0 0.0 41 86
- 1.39528 1 0 ack 40 ------- 0 1.0 0.0 41 86
r 1.3976 1 0 ack 40 ------- 0 1.0 0.0 40 84
+ 1.3976 0 1 tcp 1000 ------- 0 0.0 1.0 45 87
- 1.40128 0 1 tcp 1000 ------- 0 0.0 1.0 44 85
r 1.40328 0 1 tcp 1000 ------- 0 0.0 1.0 42 81
+ 1.40328 1 0 ack 40 ------- 0 1.0 0.0 42 88
- 1.40328 1 0 ack 40 ------- 0 1.0 0.0 42 88
r 1.4056 1 0 ack 40 ------- 0 1.0 0.0 41 86
+ 1.4056 0 1 tcp 1000 ------- 0 0.0 1.0 46 89
- 1.40928 0 1 tcp 1000 ------- 0 0.0 1.0 45 87
r 1.41128 0 1 tcp 1000 ------- 0 0.0 1.0 43 83
+ 1.41128 1 0 ack 40 ------- 0 1.0 0.0 43 90
- 1.41128 1 0 ack 40 ------- 0 1.0 0.0 43 90
r 1.4136 1 0 ack 40 ------- 0 1.0 0.0 42 88
+ 1.4136 0 1 tcp 1000 ------- 0 0.0 1.0 47 91
- 1.41728 0 1 tcp 1000 ------- 0 0.0 1.0 46 89
r 1.41928 0 1 tcp 1000 ------- 0 0.0 1.0 44 85
+ 1.41928 1 0 ack 40 ------- 0 1.0 0.0 44 92
- 1.41928 1 0 ack 40 ------- 0 1.0 0.0 44 92
r 1.4216 1 0 ack 40 ------- 0 1.0 0.0 43 90
+ 1.4216 0 1 tcp 1000 ------- 0 0.0 1.0 48 93
- 1.42528 0 1 tcp 1000 ------- 0 0.0 1.0 47 91
r 1.42728 0 1 tcp 1000 ------- 0 0.0 1.0 45 87
+ 1.42728 1 0 ack 40 ------- 0 1.0 0.0 45 94
- 1.42728 1 0 ack 40 ------- 0 1.0 0.0 45 94
r 1.4296 1 0 ack 40 ------- 0 1.0 0.0 44 92
+ 1.4296 0 1 tcp 1000 ------- 0 0.0 1.0 49 95
- 1.43328 0 1 tcp 1000 ------- 0 0.0 1.0 48 93
r 1.43528 0 1 tcp 1000 ------- 0 0.0 1.0 46 89
+ 1.43528 1 0 ack 40 ------- 0 1.0 0.0 46 96
- 1.43528 1 0 ack 40 ------- 0 1.0 0.0 46 96
r 1.4376 1 0 ack 40 ------- 0 1.0 0.0 45 94
+ 1.4376 0 1 tcp 1000 ------- 0 0.0 1.0 50 97
- 1.44128 0 1 tcp 1000 ------- 0 0.0 1.0 49 95
r 1.44328 0 1 tcp 1000 ------- 0 0.0 1.0 47 91
+ 1.44328 1 0 ack 40 ------- 0 1.0 0.0 47 98
- 1.44328 1 0 ack 40 ------- 0 1.0 0.0 47 98
r 1.4456 1 0 ack 40 ------- 0 1.0 0.0 46 96
+ 1.4456 0 1 tcp 1000 ------- 0 0.0 1.0 51 99
- 1.44928 0 1 tcp 1000 ------- 0 0.0 1.0 50 97
r 1.45128 0 1 tcp 1000 ------- 0 0.0 1.0 48 93
+ 1.45128 1 0 ack 40 ------- 0 1.0 0.0 48 100
- 1.45128 1 0 ack 40 ------- 0 1.0 0.0 48 100
r 1.4536 1 0 ack 40 ------- 0 1.0 0.0 47 98
+ 1.4536 0 1 tcp 1000 ------- 0 0.0 1.0 52 101
- 1.45728 0 1 tcp 1000 ------- 0 0.0 1.0 51 99
r 1.45928 0 1 tcp 1000 ------- 0 0.0 1.0 49 95
+ 1.45928 1 0 ack 40 ------- 0 1.0 0.0 49 102
- 1.45928 1 0 ack 40 ------- 0 1.0 0.0 49 102
r 1.4616 1 0 ack 40 ------- 0 1.0 0.0 48 100
+ 1.4616 0 1 tcp 1000 ------- 0 0.0 1.0 53 103
- 1.46528 0 1 tcp 1000 ------- 0 0.0 1.0 52 101
r 1.46728 0 1 tcp 1000 ------- 0 0.0 1.0 50 97
+ 1.46728 1 0 ack 40 ------- 0 1.0 0.0 50 104
- 1.46728 1 0 ack 40 ------- 0 1.0 0.0 50 104
r 1.4696 1 0 ack 40 ------- 0 1.0 0.0 49 102
+ 1.4696 0 1 tcp 1000 ------- 0 0.0 1.0 54 105
- 1.47328 0 1 tcp 1000 ------- 0 0.0 1.0 53 103
r 1.47528 0 1 tcp 1000 ------- 0 0.0 1.0 51 99
+ 1.47528 1 0 ack 40 ------- 0 1.0 0.0 51 106
- 1.47528 1 0 ack 40 ------- 0 1.0 0.0 51 106
r 1.4776 1 0 ack 40 ------- 0 1.0 0.0 50 104
+ 1.4776 0 1 tcp 1000 ------- 0 0.0 1.0 55 107
- 1.48128 0 1 tcp 1000 ------- 0 0.0 1.0 54 105
r 1.48328 0 1 tcp 1000 ------- 0 0.0 1.0 52 101
+ 1.48328 1 0 ack 40 ------- 0 1.0 0.0 52 108
- 1.48328 1 0 ack 40 ------- 0 1.0 0.0 52 108
r 1.4856 1 0 ack 40 ------- 0 1.0 0.0 51 106
+ 1.4856 0 1 tcp 1000 ------- 0 0.0 1.0 56 109
- 1.48928 0 1 tcp 1000 ------- 0 0.0 1.0 55 107
r 1.49128 0 1 tcp 1000 ------- 0 0.0 1.0 53 103
+ 1.49128 1 0 ack 40 ------- 0 1.0 0.0 53 110
- 1.49128 1 0 ack 40 ------- 0 1.0 0.0 53 110
r 1.4936 1 0 ack 40 ------- 0 1.0 0.0 52 108
+ 1.4936 0 1 tcp 1000 ------- 0 0.0 1.0 57 111
- 1.49728 0 1 tcp 1000 ------- 0 0.0 1.0 56 109
r 1.49928 0 1 tcp 1000 ------- 0 0.0 1.0 54 105
+ 1.49928 1 0 ack 40 ------- 0 1.0 0.0 54 112
- 1.49928 1 0 ack 40 ------- 0 1.0 0.0 54 112
r 1.5016 1 0 ack 40 ------- 0 1.0 0.0 53 110
+ 1.5016 0 1 tcp 1000 ------- 0 0.0 1.0 58 113
- 1.50528 0 1 tcp 1000 ------- 0 0.0 1.0 57 111
r 1.50728 0 1 tcp 1000 ------- 0 0.0 1.0 55 107
+ 1.50728 1 0 ack 40 ------- 0 1.0 0.0 55 114
- 1.50728 1 0 ack 40 ------- 0 1.0 0.0 55 114
r 1.5096 1 0 ack 40 ------- 0 1.0 0.0 54 112
+ 1.5096 0 1 tcp 1000 ------- 0 0.0 1.0 59 115
- 1.51328 0 1 tcp 1000 ------- 0 0.0 1.0 58 113
r 1.51528 0 1 tcp 1000 ------- 0 0.0 1.0 56 109
+ 1.51528 1 0 ack 40 ------- 0 1.0 0.0 56 116
- 1.51528 1 0 ack 40 ------- 0 1.0 0.0 56 116
r 1.5176 1 0 ack 40 ------- 0 1.0 0.0 55 114
+ 1.5176 0 1 tcp 1000 ------- 0 0.0 1.0 60 117
- 1.52128 0 1 tcp 1000 ------- 0 0.0 1.0 59 115
r 1.52328 0 1 tcp 1000 ------- 0 0.0 1.0 57 111
+ 1.52328 1 0 ack 40 ------- 0 1.0 0.0 57 118
- 1.52328 1 0 ack 40 ------- 0 1.0 0.0 57 118
r 1.5256 1 0 ack 40 ------- 0 1.0 0.0 56 116
+ 1.5256 0 1 tcp 1000 ------- 0 0.0 1.0 61 119
- 1.52928 0 1 tcp 1000 ------- 0 0.0 1.0 60 117
r 1.53128 0 1 tcp 1000 ------- 0 0.0 1.0 58 113
+ 1.53128 1 0 ack 40 ------- 0 1.0 0.0 58 120
- 1.53128 1 0 ack 40 ------- 0 1.0 0.0 58 120
r 1.5336 1 0 ack 40 ------- 0 1.0 0.0 57 118
+ 1.5336 0 1 tcp 1000 ------- 0 0.0 1.0 62 121
- 1.53728 0 1 tcp 1000 ------- 0 0.0 1.0 61 119
r 1.53928 0 1 tcp 1000 ------- 0 0.0 1.0 59 115
+ 1.53928 1 0 ack 40 ------- 0 1.0 0.0 59 122
- 1.53928 1 0 ack 40 ------- 0 1.0 0.0 59 122
r 1.5416 1 0 ack 40 ------- 0 1.0 0.0 58 120
+ 1.5416 0 1 tcp 1000 ------- 0 0.0 1.0 63 123
- 1.54528 0 1 tcp 1000 ------- 0 0.0 1.0 62 121
r 1.54728 0 1 tcp 1000 ------- 0 0.0 1.0 60 117
+ 1.54728 1 0 ack 40 ------- 0 1.0 0.0 60 124
- 1.54728 1 0 ack 40 ------- 0 1.0 0.0 60 124
r 1.5496 1 0 ack 40 ------- 0 1.0 0.0 59 122
+ 1.5496 0 1 tcp 1000 ------- 0 0.0 1.0 64 125
- 1.55328 0 1 tcp 1000 ------- 0 0.0 1.0 63 123
r 1.55528 0 1 tcp 1000 ------- 0 0.0 1.0 61 119
+ 1.55528 1 0 ack 40 ------- 0 1.0 0.0 61 126
- 1.55528 1 0 ack 40 ------- 0 1.0 0.0 61 126
r 1.5576 1 0 ack 40 ------- 0 1.0 0.0 60 124
+ 1.5576 0 1 tcp 1000 ------- 0 0.0 1.0 65 127
- 1.56128 0 1 tcp 1000 ------- 0 0.0 1.0 64 125
r 1.56328 0 1 tcp 1000 ------- 0 0.0 1.0 62 121
+ 1.56328 1 0 ack 40 ------- 0 1.0 0.0 62 128
- 1.56328 1 0 ack 40 ------- 0 1.0 0.0 62 128
r 1.5656 1 0 ack 40 ------- 0 1.0 0.0 61 126
+ 1.5656 0 1 tcp 1000 ------- 0 0.0 1.0 66 129
- 1.56928 0 1 tcp 1000 ------- 0 0.0 1.0 65 127
r 1.57128 0 1 tcp 1000 ------- 0 0.0 1.0 63 123
+ 1.57128 1 0 ack 40 ------- 0 1.0 0.0 63 130
- 1.57128 1 0 ack 40 ------- 0 1.0 0.0 63 130
r 1.5736 1 0 ack 40 ------- 0 1.0 0.0 62 128
+ 1.5736 0 1 tcp 1000 ------- 0 0.0 1.0 67 131
- 1.57728 0 1 tcp 1000 ------- 0 0.0 1.0 66 129
r 1.57928 0 1 tcp 1000 ------- 0 0.0 1.0 64 125
+ 1.57928 1 0 ack 40 ------- 0 1.0 0.0 64 132
- 1.57928 1 0 ack 40 ------- 0 1.0 0.0 64 132
r 1.5816 1 0 ack 40 ------- 0 1.0 0.0 63 130
+ 1.5816 0 1 tcp 1000 ------- 0 0.0 1.0 68 133
- 1.58528 0 1 tcp 1000 ------- 0 0.0 1.0 67 131
r 1.58728 0 1 tcp 1000 ------- 0 0.0 1.0 65 127
+ 1.58728 1 0 ack 40 ------- 0 1.0 0.0 65 134
- 1.58728 1 0 ack 40 ------- 0 1.0 0.0 65 134
r 1.5896 1 0 ack 40 ------- 0 1.0 0.0 64 132
+ 1.5896 0 1 tcp 1000 ------- 0 0.0 1.0 69 135
- 1.59328 0 1 tcp 1000 ------- 0 0.0 1.0 68 133
r 1.59528 0 1 tcp 1000 ------- 0 0.0 1.0 66 129
+ 1.59528 1 0 ack 40 ------- 0 1.0 0.0 66 136
- 1.59528 1 0 ack 40 ------- 0 1.0 0.0 66 136
r 1.5976 1 0 ack 40 ------- 0 1.0 0.0 65 134
+ 1.5976 0 1 tcp 1000 ------- 0 0.0 1.0 70 137
- 1.60128 0 1 tcp 1000 ------- 0 0.0 1.0 69 135
r 1.60328 0 1 tcp 1000 ------- 0 0.0 1.0 67 131
+ 1.60328 1 0 ack 40 ------- 0 1.0 0.0 67 138
- 1.60328 1 0 ack 40 ------- 0 1.0 0.0 67 138
r 1.6056 1 0 ack 40 ------- 0 1.0 0.0 66 136
+ 1.6056 0 1 tcp 1000 ------- 0 0.0 1.0 71 139
- 1.60928 0 1 tcp 1000 ------- 0 0.0 1.0 70 137
r 1.61128 0 1 tcp 1000 ------- 0 0.0 1.0 68 133
+ 1.61128 1 0 ack 40 ------- 0 1.0 0.0 68 140
- 1.61128 1 0 ack 40 ------- 0 1.0 0.0 68 140
r 1.6136 1 0 ack 40 ------- 0 1.0 0.0 67 138
+ 1.6136 0 1 tcp 1000 ------- 0 0.0 1.0 72 141
- 1.61728 0 1 tcp 1000 ------- 0 0.0 1.0 71 139
r 1.61928 0 1 tcp 1000 ------- 0 0.0 1.0 69 135
+ 1.61928 1 0 ack 40 ------- 0 1.0 0.0 69 142
- 1.61928 1 0 ack 40 ------- 0 1.0 0.0 69 142
r 1.6216 1 0 ack 40 ------- 0 1.0 0.0 68 140
+ 1.6216 0 1 tcp 1000 ------- 0 0.0 1.0 73 143
- 1.62528 0 1 tcp 1000 ------- 0 0.0 1.0 72 141
r 1.62728 0 1 tcp 1000 ------- 0 0.0 1.0 70 137
+ 1.62728 1 0 ack 40 ------- 0 1.0 0.0 70 144
- 1.62728 1 0 ack 40 ------- 0 1.0 0.0 70 144
r 1.6296 1 0 ack 40 ------- 0 1.0 0.0 69 142
+ 1.6296 0 1 tcp 1000 ------- 0 0.0 1.0 74 145
- 1.63328 0 1 tcp 1000 ------- 0 0.0 1.0 73 143
r 1.63528 0 1 tcp 1000 ------- 0 0.0 1.0 71 139
+ 1.63528 1 0 ack 40 ------- 0 1.0 0.0 71 146
- 1.63528 1 0 ack 40 ------- 0 1.0 0.0 71 146
r 1.6376 1 0 ack 40 ------- 0 1.0 0.0 70 144
+ 1.6376 0 1 tcp 1000 ------- 0 0.0 1.0 75 147
- 1.64128 0 1 tcp 1000 ------- 0 0.0 1.0 74 145
r 1.64328 0 1 tcp 1000 ------- 0 0.0 1.0 72 141
+ 1.64328 1 0 ack 40 ------- 0 1.0 0.0 72 148
- 1.64328 1 0 ack 40 ------- 0 1.0 0.0 72 148
r 1.6456 1 0 ack 40 ------- 0 1.0 0.0 71 146
+ 1.6456 0 1 tcp 1000 ------- 0 0.0 1.0 76 149
- 1.64928 0 1 tcp 1000 ------- 0 0.0 1.0 75 147
r 1.65128 0 1 tcp 1000 ------- 0 0.0 1.0 73 143
+ 1.65128 1 0 ack 40 ------- 0 1.0 0.0 73 150
- 1.65128 1 0 ack 40 ------- 0 1.0 0.0 73 150
r 1.6536 1 0 ack 40 ------- 0 1.0 0.0 72 148
+ 1.6536 0 1 tcp 1000 ------- 0 0.0 1.0 77 151
- 1.65728 0 1 tcp 1000 ------- 0 0.0 1.0 76 149
r 1.65928 0 1 tcp 1000 ------- 0 0.0 1.0 74 145
+ 1.65928 1 0 ack 40 ------- 0 1.0 0.0 74 152
- 1.65928 1 0 ack 40 ------- 0 1.0 0.0 74 152
r 1.6616 1 0 ack 40 ------- 0 1.0 0.0 73 150
+ 1.6616 0 1 tcp 1000 ------- 0 0.0 1.0 78 153
- 1.66528 0 1 tcp 1000 ------- 0 0.0 1.0 77 151
r 1.66728 0 1 tcp 1000 ------- 0 0.0 1.0 75 147
+ 1.66728 1 0 ack 40 ------- 0 1.0 0.0 75 154
- 1.66728 1 0 ack 40 ------- 0 1.0 0.0 75 154
r 1.6696 1 0 ack 40 ------- 0 1.0 0.0 74 152
+ 1.6696 0 1 tcp 1000 ------- 0 0.0 1.0 79 155
- 1.67328 0 1 tcp 1000 ------- 0 0.0 1.0 78 153
r 1.67528 0 1 tcp 1000 ------- 0 0.0 1.0 76 149
+ 1.67528 1 0 ack 40 ------- 0 1.0 0.0 76 156
- 1.67528 1 0 ack 40 ------- 0 1.0 0.0 76 156
r 1.6776 1 0 ack 40 ------- 0 1.0 0.0 75 154
+ 1.6776 0 1 tcp 1000 ------- 0 0.0 1.0 80 157
- 1.68128 0 1 tcp 1000 ------- 0 0.0 1.0 79 155
r 1.68328 0 1 tcp 1000 ------- 0 0.0 1.0 77 151
+ 1.68328 1 0 ack 40 ------- 0 1.0 0.0 77 158
- 1.68328 1 0 ack 40 ------- 0 1.0 0.0 77 158
r 1.6856 1 0 ack 40 ------- 0 1.0 0.0 76 156
+ 1.6856 0 1 tcp 1000 ------- 0 0.0 1.0 81 159
- 1.68928 0 1 tcp 1000 ------- 0 0.0 1.0 80 157
r 1.69128 0 1 tcp 1000 ------- 0 0.0 1.0 78 153
+ 1.69128 1 0 ack 40 ------- 0 1.0 0.0 78 160
- 1.69128 1 0 ack 40 ------- 0 1.0 0.0 78 160
r 1.6936 1 0 ack 40 ------- 0 1.0 0.0 77 158
+ 1.6936 0 1 tcp 1000 ------- 0 0.0 1.0 82 161
- 1.69728 0 1 tcp 1000 ------- 0 0.0 1.0 81 159
r 1.69928 0 1 tcp 1000 ------- 0 0.0 1.0 79 155
+ 1.69928 1 0 ack 40 ------- 0 1.0 0.0 79 162
- 1.69928 1 0 ack 40 ------- 0 1.0 0.0 79 162
r 1.7016 1 0 ack 40 ------- 0 1.0 0.0 78 160
+ 1.7016 0 1 tcp 1000 ------- 0 0.0 1.0 83 163
- 1.70528 0 1 tcp 1000 ------- 0 0.0 1.0 82 161
r 1.70728 0 1 tcp 1000 ------- 0 0.0 1.0 80 157
+ 1.70728 1 0 ack 40 ------- 0 1.0 0.0 80 164
- 1.70728 1 0 ack 40 ------- 0 1.0 0.0 80 164
r 1.7096 1 0 ack 40 ------- 0 1.0 0.0 79 162
+ 1.7096 0 1 tcp 1000 ------- 0 0.0 1.0 84 165
- 1.71328 0 1 tcp 1000 ------- 0 0.0 1.0 83 163
r 1.71528 0 1 tcp 1000 ------- 0 0.0 1.0 81 159
+ 1.71528 1 0 ack 40 ------- 0 1.0 0.0 81 166
- 1.71528 1 0 ack 40 ------- 0 1.0 0.0 81 166
r 1.7176 1 0 ack 40 ------- 0 1.0 0.0 80 164
+ 1.7176 0 1 tcp 1000 ------- 0 0.0 1.0 85 167
- 1.72128 0 1 tcp 1000 ------- 0 0.0 1.0 84 165
r 1.72328 0 1 tcp 1000 ------- 0 0.0 1.0 82 161
+ 1.72328 1 0 ack 40 ------- 0 1.0 0.0 82 168
- 1.72328 1 0 ack 40 ------- 0 1.0 0.0 82 168
r 1.7256 1 0 ack 40 ------- 0 1.0 0.0 81 166
+ 1.7256 0 1 tcp 1000 ------- 0 0.0 1.0 86 169
- 1.72928 0 1 tcp 1000 ------- 0 0.0 1.0 85 167
r 1.73128 0 1 tcp 1000 ------- 0 0.0 1.0 83 163
+ 1.73128 1 0 ack 40 ------- 0 1.0 0.0 83 170
- 1.73128 1 0 ack 40 ------- 0 1.0 0.0 83 170
r 1.7336 1 0 ack 40 ------- 0 1.0 0.0 82 168
+ 1.7336 0 1 tcp 1000 ------- 0 0.0 1.0 87 171
- 1.73728 0 1 tcp 1000 ------- 0 0.0 1.0 86 169
r 1.73928 0 1 tcp 1000 ------- 0 0.0 1.0 84 165
+ 1.73928 1 0 ack 40 ------- 0 1.0 0.0 84 172
- 1.73928 1 0 ack 40 ------- 0 1.0 0.0 84 172
r 1.7416 1 0 ack 40 ------- 0 1.0 0.0 83 170
+ 1.7416 0 1 tcp 1000 ------- 0 0.0 1.0 88 173
- 1.74528 0 1 tcp 1000 ------- 0 0.0 1.0 87 171
r 1.74728 0 1 tcp 1000 ------- 0 0.0 1.0 85 167
+ 1.74728 1 0 ack 40 ------- 0 1.0 0.0 85 174
- 1.74728 1 0 ack 40 ------- 0 1.0 0.0 85 174
r 1.7496 1 0 ack 40 ------- 0 1.0 0.0 84 172
+ 1.7496 0 1 tcp 1000 ------- 0 0.0 1.0 89 175
- 1.75328 0 1 tcp 1000 ------- 0 0.0 1.0 88 173
r 1.75528 0 1 tcp 1000 ------- 0 0.0 1.0 86 169
+ 1.75528 1 0 ack 40 ------- 0 1.0 0.0 86 176
- 1.75528 1 0 ack 40 ------- 0 1.0 0.0 86 176
r 1.7576 1 0 ack 40 ------- 0 1.0 0.0 85 174
+ 1.7576 0 1 tcp 1000 ------- 0 0.0 1.0 90 177
- 1.76128 0 1 tcp 1000 ------- 0 0.0 1.0 89 175
r 1.76328 0 1 tcp 1000 ------- 0 0.0 1.0 87 171
+ 1.76328 1 0 ack 40 ------- 0 1.0 0.0 87 178
- 1.76328 1 0 ack 40 ------- 0 1.0 0.0 87 178
r 1.7656 1 0 ack 40 ------- 0 1.0 0.0 86 176
+ 1.7656 0 1 tcp 1000 ------- 0 0.0 1.0 91 179
- 1.76928 0 1 tcp 1000 ------- 0 0.0 1.0 90 177
r 1.77128 0 1 tcp 1000 ------- 0 0.0 1.0 88 173
+ 1.77128 1 0 ack 40 ------- 0 1.0 0.0 88 180
- 1.77128 1 0 ack 40 ------- 0 1.0 0.0 88 180
r 1.7736 1 0 ack 40 ------- 0 1.0 0.0 87 178
+ 1.7736 0 1 tcp 1000 ------- 0 0.0 1.0 92 181
- 1.77728 0 1 tcp 1000 ------- 0 0.0 1.0 91 179
r 1.77928 0 1 tcp 1000 ------- 0 0.0 1.0 89 175
+ 1.77928 1 0 ack 40 ------- 0 1.0 0.0 89 182
- 1.77928 1 0 ack 40 ------- 0 1.0 0.0 89 182
r 1.7816 1 0 ack 40 ------- 0 1.0 0.0 88 180
+ 1.7816 0 1 tcp 1000 ------- 0 0.0 1.0 93 183
- 1.78528 0 1 tcp 1000 ------- 0 0.0 1.0 92 181
r 1.78728 0 1 tcp 1000 ------- 0 0.0 1.0 90 177
+ 1.78728 1 0 ack 40 ------- 0 1.0 0.0 90 184
- 1.78728 1 0 ack 40 ------- 0 1.0 0.0 90 184
r 1.7896 1 0 ack 40 ------- 0 1.0 0.0 89 182
+ 1.7896 0 1 tcp 1000 ------- 0 0.0 1.0 94 185
- 1.79328 0 1 tcp 1000 ------- 0 0.0 1.0 93 183
r 1.79528 0 1 tcp 1000 ------- 0 0.0 1.0 91 179
+ 1.79528 1 0 ack 40 ------- 0 1.0 0.0 91 186
- 1.79528 1 0 ack 40 ------- 0 1.0 0.0 91 186
r 1.7976 1 0 ack 40 ------- 0 1.0 0.0 90 184
+ 1.7976 0 1 tcp 1000 ------- 0 0.0 1.0 95 187
- 1.80128 0 1 tcp 1000 ------- 0 0.0 1.0 94 185
r 1.80328 0 1 tcp 1000 ------- 0 0.0 1.0 92 181
+ 1.80328 1 0 ack 40 ------- 0 1.0 0.0 92 188
- 1.80328 1 0 ack 40 ------- 0 1.0 0.0 92 188
r 1.8056 1 0 ack 40 ------- 0 1.0 0.0 91 186
+ 1.8056 0 1 tcp 1000 ------- 0 0.0 1.0 96 189
- 1.80928 0 1 tcp 1000 ------- 0 0.0 1.0 95 187
r 1.81128 0 1 tcp 1000 ------- 0 0.0 1.0 93 183
+ 1.81128 1 0 ack 40 ------- 0 1.0 0.0 93 190
- 1.81128 1 0 ack 40 ------- 0 1.0 0.0 93 190
r 1.8136 1 0 ack 40 ------- 0 1.0 0.0 92 188
+ 1.8136 0 1 tcp 1000 ------- 0 0.0 1.0 97 191
- 1.81728 0 1 tcp 1000 ------- 0 0.0 1.0 96 189
r 1.81928 0 1 tcp 1000 ------- 0 0.0 1.0 94 185
+ 1.81928 1 0 ack 40 ------- 0 1.0 0.0 94 192
- 1.81928 1 0 ack 40 ------- 0 1.0 0.0 94 192
r 1.8216 1 0 ack 40 ------- 0 1.0 0.0 93 190
+ 1.8216 0 1 tcp 1000 ------- 0 0.0 1.0 98 193
- 1.82528 0 1 tcp 1000 ------- 0 0.0 1.0 97 191
r 1.82728 0 1 tcp 1000 ------- 0 0.0 1.0 95 187
+ 1.82728 1 0 ack 40 ------- 0 1.0 0.0 95 194
- 1.82728 1 0 ack 40 ------- 0 1.0 0.0 95 194
r 1.8296 1 0 ack 40 ------- 0 1.0 0.0 94 192
+ 1.8296 0 1 tcp 1000 ------- 0 0.0 1.0 99 195
- 1.83328 0 1 tcp 1000 ------- 0 0.0 1.0 98 193
r 1.83528 0 1 tcp 1000 ------- 0 0.0 1.0 96 189
+ 1.83528 1 0 ack 40 ------- 0 1.0 0.0 96 196
- 1.83528 1 0 ack 40 ------- 0 1.0 0.0 96 196
r 1.8376 1 0 ack 40 ------- 0 1.0 0.0 95 194
+ 1.8376 0 1 tcp 1000 ------- 0 0.0 1.0 100 197
- 1.84128 0 1 tcp 1000 ------- 0 0.0 1.0 99 195
r 1.84328 0 1 tcp 1000 ------- 0 0.0 1.0 97 191
+ 1.84328 1 0 ack 40 ------- 0 1.0 0.0 97 198
- 1.84328 1 0 ack 40 ------- 0 1.0 0.0 97 198
r 1.8456 1 0 ack 40 ------- 0 1.0 0.0 96 196
+ 1.8456 0 1 tcp 1000 ------- 0 0.0 1.0 101 199
- 1.84928 0 1 tcp 1000 ------- 0 0.0 1.0 100 197
r 1.85128 0 1 tcp 1000 ------- 0 0.0 1.0 98 193
+ 1.85128 1 0 ack 40 ------- 0 1.0 0.0 98 200
- 1.85128 1 0 ack 40 ------- 0 1.0 0.0 98 200
r 1.8536 1 0 ack 40 ------- 0 1.0 0.0 97 198
+ 1.8536 0 1 tcp 1000 ------- 0 0.0 1.0 102 201
- 1.85728 0 1 tcp 1000 ------- 0 0.0 1.0 101 199
r 1.85928 0 1 tcp 1000 ------- 0 0.0 1.0 99 195
+ 1.85928 1 0 ack 40 ------- 0 1.0 0.0 99 202
- 1.85928 1 0 ack 40 ------- 0 1.0 0.0 99 202
r 1.8616 1 0 ack 40 ------- 0 1.0 0.0 98 200
+ 1.8616 0 1 tcp 1000 ------- 0 0.0 1.0 103 203
- 1.86528 0 1 tcp 1000 ------- 0 0.0 1.0 102 201
r 1.86728 0 1 tcp 1000 ------- 0 0.0 1.0 100 197
+ 1.86728 1 0 ack 40 ------- 0 1.0 0.0 100 204
- 1.86728 1 0 ack 40 ------- 0 1.0 0.0 100 204
r 1.8696 1 0 ack 40 ------- 0 1.0 0.0 99 202
+ 1.8696 0 1 tcp 1000 ------- 0 0.0 1.0 104 205
- 1.87328 0 1 tcp 1000 ------- 0 0.0 1.0 103 203
r 1.87528 0 1 tcp 1000 ------- 0 0.0 1.0 101 199
+ 1.87528 1 0 ack 40 ------- 0 1.0 0.0 101 206
- 1.87528 1 0 ack 40 ------- 0 1.0 0.0 101 206
r 1.8776 1 0 ack 40 ------- 0 1.0 0.0 100 204
+ 1.8776 0 1 tcp 1000 ------- 0 0.0 1.0 105 207
- 1.88128 0 1 tcp 1000 ------- 0 0.0 1.0 104 205
r 1.88328 0 1 tcp 1000 ------- 0 0.0 1.0 102 201
+ 1.88328 1 0 ack 40 ------- 0 1.0 0.0 102 208
- 1.88328 1 0 ack 40 ------- 0 1.0 0.0 102 208
r 1.8856 1 0 ack 40 ------- 0 1.0 0.0 101 206
+ 1.8856 0 1 tcp 1000 ------- 0 0.0 1.0 106 209
- 1.88928 0 1 tcp 1000 ------- 0 0.0 1.0 105 207
r 1.89128 0 1 tcp 1000 ------- 0 0.0 1.0 103 203
+ 1.89128 1 0 ack 40 ------- 0 1.0 0.0 103 210
- 1.89128 1 0 ack 40 ------- 0 1.0 0.0 103 210
r 1.8936 1 0 ack 40 ------- 0 1.0 0.0 102 208
+ 1.8936 0 1 tcp 1000 ------- 0 0.0 1.0 107 211
- 1.89728 0 1 tcp 1000 ------- 0 0.0 1.0 106 209
r 1.89928 0 1 tcp 1000 ------- 0 0.0 1.0 104 205
+ 1.89928 1 0 ack 40 ------- 0 1.0 0.0 104 212
- 1.89928 1 0 ack 40 ------- 0 1.0 0.0 104 212
r 1.9016 1 0 ack 40 ------- 0 1.0 0.0 103 210
+ 1.9016 0 1 tcp 1000 ------- 0 0.0 1.0 108 213
- 1.90528 0 1 tcp 1000 ------- 0 0.0 1.0 107 211
r 1.90728 0 1 tcp 1000 ------- 0 0.0 1.0 105 207
+ 1.90728 1 0 ack 40 ------- 0 1.0 0.0 105 214
- 1.90728 1 0 ack 40 ------- 0 1.0 0.0 105 214
r 1.9096 1 0 ack 40 ------- 0 1.0 0.0 104 212
+ 1.9096 0 1 tcp 1000 ------- 0 0.0 1.0 109 215
- 1.91328 0 1 tcp 1000 ------- 0 0.0 1.0 108 213
r 1.91528 0 1 tcp 1000 ------- 0 0.0 1.0 106 209
+ 1.91528 1 0 ack 40 ------- 0 1.0 0.0 106 216
- 1.91528 1 0 ack 40 ------- 0 1.0 0.0 106 216
r 1.9176 1 0 ack 40 ------- 0 1.0 0.0 105 214
+ 1.9176 0 1 tcp 1000 ------- 0 0.0 1.0 110 217
- 1.92128 0 1 tcp 1000 ------- 0 0.0 1.0 109 215
r 1.92328 0 1 tcp 1000 ------- 0 0.0 1.0 107 211