+ 0.5 0 1 tcp 40 ------- 0 0.0 1.0 0 0
- 0.5 0 1 tcp 40 ------- 0 0.0 1.0 0 0
+ 0.5 1 2 tcp 40 ------- 0 1.1 2.0 0 1
- 0.5 1 2 tcp 40 ------- 0 1.1 2.0 0 1
+ 0.5 2 3 tcp 40 ------- 0 2.1 3.0 0 2
- 0.5 2 3 tcp 40 ------- 0 2.1 3.0 0 2
+ 0.5 3 4 tcp 40 ------- 0 3.1 4.0 0 3
- 0.5 3 4 tcp 40 ------- 0 3.1 4.0 0 3
r 0.51032 0 1 tcp 40 ------- 0 0.0 1.0 0 0
+ 0.51032 1 0 ack 40 ------- 0 1.0 0.0 0 4
- 0.51032 1 0 ack 40 ------- 0 1.0 0.0 0 4
r 0.51032 1 2 tcp 40 ------- 0 1.1 2.0 0 1
+ 0.51032 2 1 ack 40 ------- 0 2.0 1.1 0 5
- 0.51032 2 1 ack 40 ------- 0 2.0 1.1 0 5
r 0.51032 2 3 tcp 40 ------- 0 2.1 3.0 0 2
+ 0.51032 3 2 ack 40 ------- 0 3.0 2.1 0 6
- 0.51032 3 2 ack 40 ------- 0 3.0 2.1 0 6
r 0.51032 3 4 tcp 40 ------- 0 3.1 4.0 0 3
+ 0.51032 4 3 ack 40 ------- 0 4.0 3.1 0 7
- 0.51032 4 3 ack 40 ------- 0 4.0 3.1 0 7
r 0.52064 1 0 ack 40 ------- 0 1.0 0.0 0 4
+ 0.52064 0 1 tcp 1040 ------- 0 0.0 1.0 1 8
- 0.52064 0 1 tcp 1040 ------- 0 0.0 1.0 1 8
+ 0.52064 0 1 tcp 1040 ------- 0 0.0 1.0 2 9
r 0.52064 2 1 ack 40 ------- 0 2.0 1.1 0 5
+ 0.52064 1 2 tcp 1040 ------- 0 1.1 2.0 1 10
- 0.52064 1 2 tcp 1040 ------- 0 1.1 2.0 1 10
+ 0.52064 1 2 tcp 1040 ------- 0 1.1 2.0 2 11
r 0.52064 3 2 ack 40 ------- 0 3.0 2.1 0 6
+ 0.52064 2 3 tcp 1040 ------- 0 2.1 3.0 1 12
- 0.52064 2 3 tcp 1040 ------- 0 2.1 3.0 1 12
+ 0.52064 2 3 tcp 1040 ------- 0 2.1 3.0 2 13
r 0.52064 4 3 ack 40 ------- 0 4.0 3.1 0 7
+ 0.52064 3 4 tcp 1040 ------- 0 3.1 4.0 1 14
- 0.52064 3 4 tcp 1040 ------- 0 3.1 4.0 1 14
+ 0.52064 3 4 tcp 1040 ------- 0 3.1 4.0 2 15
- 0.52896 0 1 tcp 1040 ------- 0 0.0 1.0 2 9
- 0.52896 1 2 tcp 1040 ------- 0 1.1 2.0 2 11
- 0.52896 2 3 tcp 1040 ------- 0 2.1 3.0 2 13
- 0.52896 3 4 tcp 1040 ------- 0 3.1 4.0 2 15
r 0.53896 0 1 tcp 1040 ------- 0 0.0 1.0 1 8
+ 0.53896 1 0 ack 40 ------- 0 1.0 0.0 1 16
- 0.53896 1 0 ack 40 ------- 0 1.0 0.0 1 16
r 0.53896 1 2 tcp 1040 ------- 0 1.1 2.0 1 10
+ 0.53896 2 1 ack 40 ------- 0 2.0 1.1 1 17
- 0.53896 2 1 ack 40 ------- 0 2.0 1.1 1 17
r 0.53896 2 3 tcp 1040 ------- 0 2.1 3.0 1 12
+ 0.53896 3 2 ack 40 ------- 0 3.0 2.1 1 18
- 0.53896 3 2 ack 40 ------- 0 3.0 2.1 1 18
r 0.53896 3 4 tcp 1040 ------- 0 3.1 4.0 1 14
+ 0.53896 4 3 ack 40 ------- 0 4.0 3.1 1 19
- 0.53896 4 3 ack 40 ------- 0 4.0 3.1 1 19
r 0.54728 0 1 tcp 1040 ------- 0 0.0 1.0 2 9
+ 0.54728 1 0 ack 40 ------- 0 1.0 0.0 2 20
- 0.54728 1 0 ack 40 ------- 0 1.0 0.0 2 20
r 0.54728 1 2 tcp 1040 ------- 0 1.1 2.0 2 11
+ 0.54728 2 1 ack 40 ------- 0 2.0 1.1 2 21
- 0.54728 2 1 ack 40 ------- 0 2.0 1.1 2 21
r 0.54728 2 3 tcp 1040 ------- 0 2.1 3.0 2 13
+ 0.54728 3 2 ack 40 ------- 0 3.0 2.1 2 22
- 0.54728 3 2 ack 40 ------- 0 3.0 2.1 2 22
r 0.54728 3 4 tcp 1040 ------- 0 3.1 4.0 2 15
+ 0.54728 4 3 ack 40 ------- 0 4.0 3.1 2 23
- 0.54728 4 3 ack 40 ------- 0 4.0 3.1 2 23
r 0.54928 1 0 ack 40 ------- 0 1.0 0.0 1 16
+ 0.54928 0 1 tcp 1040 ------- 0 0.0 1.0 3 24
- 0.54928 0 1 tcp 1040 ------- 0 0.0 1.0 3 24
+ 0.54928 0 1 tcp 1040 ------- 0 0.0 1.0 4 25
r 0.54928 2 1 ack 40 ------- 0 2.0 1.1 1 17
+ 0.54928 1 2 tcp 1040 ------- 0 1.1 2.0 3 26
- 0.54928 1 2 tcp 1040 ------- 0 1.1 2.0 3 26
+ 0.54928 1 2 tcp 1040 ------- 0 1.1 2.0 4 27
r 0.54928 3 2 ack 40 ------- 0 3.0 2.1 1 18
+ 0.54928 2 3 tcp 1040 ------- 0 2.1 3.0 3 28
- 0.54928 2 3 tcp 1040 ------- 0 2.1 3.0 3 28
+ 0.54928 2 3 tcp 1040 ------- 0 2.1 3.0 4 29
r 0.54928 4 3 ack 40 ------- 0 4.0 3.1 1 19
+ 0.54928 3 4 tcp 1040 ------- 0 3.1 4.0 3 30
- 0.54928 3 4 tcp 1040 ------- 0 3.1 4.0 3 30
+ 0.54928 3 4 tcp 1040 ------- 0 3.1 4.0 4 31
r 0.5576 1 0 ack 40 ------- 0 1.0 0.0 2 20
+ 0.5576 0 1 tcp 1040 ------- 0 0.0 1.0 5 32
+ 0.5576 0 1 tcp 1040 ------- 0 0.0 1.0 6 33
r 0.5576 2 1 ack 40 ------- 0 2.0 1.1 2 21
+ 0.5576 1 2 tcp 1040 ------- 0 1.1 2.0 5 34
+ 0.5576 1 2 tcp 1040 ------- 0 1.1 2.0 6 35
r 0.5576 3 2 ack 40 ------- 0 3.0 2.1 2 22
+ 0.5576 2 3 tcp 1040 ------- 0 2.1 3.0 5 36
+ 0.5576 2 3 tcp 1040 ------- 0 2.1 3.0 6 37
r 0.5576 4 3 ack 40 ------- 0 4.0 3.1 2 23
+ 0.5576 3 4 tcp 1040 ------- 0 3.1 4.0 5 38
+ 0.5576 3 4 tcp 1040 ------- 0 3.1 4.0 6 39
- 0.5576 0 1 tcp 1040 ------- 0 0.0 1.0 4 25
- 0.5576 1 2 tcp 1040 ------- 0 1.1 2.0 4 27
- 0.5576 2 3 tcp 1040 ------- 0 2.1 3.0 4 29
- 0.5576 3 4 tcp 1040 ------- 0 3.1 4.0 4 31
- 0.56592 0 1 tcp 1040 ------- 0 0.0 1.0 5 32
- 0.56592 1 2 tcp 1040 ------- 0 1.1 2.0 5 34
- 0.56592 2 3 tcp 1040 ------- 0 2.1 3.0 5 36
- 0.56592 3 4 tcp 1040 ------- 0 3.1 4.0 5 38
r 0.5676 0 1 tcp 1040 ------- 0 0.0 1.0 3 24
+ 0.5676 1 0 ack 40 ------- 0 1.0 0.0 3 40
- 0.5676 1 0 ack 40 ------- 0 1.0 0.0 3 40
r 0.5676 1 2 tcp 1040 ------- 0 1.1 2.0 3 26
+ 0.5676 2 1 ack 40 ------- 0 2.0 1.1 3 41
- 0.5676 2 1 ack 40 ------- 0 2.0 1.1 3 41
r 0.5676 2 3 tcp 1040 ------- 0 2.1 3.0 3 28
+ 0.5676 3 2 ack 40 ------- 0 3.0 2.1 3 42
- 0.5676 3 2 ack 40 ------- 0 3.0 2.1 3 42
r 0.5676 3 4 tcp 1040 ------- 0 3.1 4.0 3 30
+ 0.5676 4 3 ack 40 ------- 0 4.0 3.1 3 43
- 0.5676 4 3 ack 40 ------- 0 4.0 3.1 3 43
- 0.57424 0 1 tcp 1040 ------- 0 0.0 1.0 6 33
- 0.57424 1 2 tcp 1040 ------- 0 1.1 2.0 6 35
- 0.57424 2 3 tcp 1040 ------- 0 2.1 3.0 6 37
- 0.57424 3 4 tcp 1040 ------- 0 3.1 4.0 6 39
r 0.57592 0 1 tcp 1040 ------- 0 0.0 1.0 4 25
+ 0.57592 1 0 ack 40 ------- 0 1.0 0.0 4 44
- 0.57592 1 0 ack 40 ------- 0 1.0 0.0 4 44
r 0.57592 1 2 tcp 1040 ------- 0 1.1 2.0 4 27
+ 0.57592 2 1 ack 40 ------- 0 2.0 1.1 4 45
- 0.57592 2 1 ack 40 ------- 0 2.0 1.1 4 45
r 0.57592 2 3 tcp 1040 ------- 0 2.1 3.0 4 29
+ 0.57592 3 2 ack 40 ------- 0 3.0 2.1 4 46
- 0.57592 3 2 ack 40 ------- 0 3.0 2.1 4 46
r 0.57592 3 4 tcp 1040 ------- 0 3.1 4.0 4 31
+ 0.57592 4 3 ack 40 ------- 0 4.0 3.1 4 47
- 0.57592 4 3 ack 40 ------- 0 4.0 3.1 4 47
r 0.57792 1 0 ack 40 ------- 0 1.0 0.0 3 40
+ 0.57792 0 1 tcp 1040 ------- 0 0.0 1.0 7 48
+ 0.57792 0 1 tcp 1040 ------- 0 0.0 1.0 8 49
r 0.57792 2 1 ack 40 ------- 0 2.0 1.1 3 41
+ 0.57792 1 2 tcp 1040 ------- 0 1.1 2.0 7 50
+ 0.57792 1 2 tcp 1040 ------- 0 1.1 2.0 8 51
r 0.57792 3 2 ack 40 ------- 0 3.0 2.1 3 42
+ 0.57792 2 3 tcp 1040 ------- 0 2.1 3.0 7 52
+ 0.57792 2 3 tcp 1040 ------- 0 2.1 3.0 8 53
r 0.57792 4 3 ack 40 ------- 0 4.0 3.1 3 43
+ 0.57792 3 4 tcp 1040 ------- 0 3.1 4.0 7 54
+ 0.57792 3 4 tcp 1040 ------- 0 3.1 4.0 8 55
- 0.58256 0 1 tcp 1040 ------- 0 0.0 1.0 7 48
- 0.58256 1 2 tcp 1040 ------- 0 1.1 2.0 7 50
- 0.58256 2 3 tcp 1040 ------- 0 2.1 3.0 7 52
- 0.58256 3 4 tcp 1040 ------- 0 3.1 4.0 7 54
r 0.58424 0 1 tcp 1040 ------- 0 0.0 1.0 5 32
+ 0.58424 1 0 ack 40 ------- 0 1.0 0.0 5 56
- 0.58424 1 0 ack 40 ------- 0 1.0 0.0 5 56
r 0.58424 1 2 tcp 1040 ------- 0 1.1 2.0 5 34
+ 0.58424 2 1 ack 40 ------- 0 2.0 1.1 5 57
- 0.58424 2 1 ack 40 ------- 0 2.0 1.1 5 57
r 0.58424 2 3 tcp 1040 ------- 0 2.1 3.0 5 36
+ 0.58424 3 2 ack 40 ------- 0 3.0 2.1 5 58
- 0.58424 3 2 ack 40 ------- 0 3.0 2.1 5 58
r 0.58424 3 4 tcp 1040 ------- 0 3.1 4.0 5 38
+ 0.58424 4 3 ack 40 ------- 0 4.0 3.1 5 59
- 0.58424 4 3 ack 40 ------- 0 4.0 3.1 5 59
r 0.58624 1 0 ack 40 ------- 0 1.0 0.0 4 44
+ 0.58624 0 1 tcp 1040 ------- 0 0.0 1.0 9 60
+ 0.58624 0 1 tcp 1040 ------- 0 0.0 1.0 10 61
r 0.58624 2 1 ack 40 ------- 0 2.0 1.1 4 45
+ 0.58624 1 2 tcp 1040 ------- 0 1.1 2.0 9 62
+ 0.58624 1 2 tcp 1040 ------- 0 1.1 2.0 10 63
r 0.58624 3 2 ack 40 ------- 0 3.0 2.1 4 46
+ 0.58624 2 3 tcp 1040 ------- 0 2.1 3.0 9 64
+ 0.58624 2 3 tcp 1040 ------- 0 2.1 3.0 10 65
r 0.58624 4 3 ack 40 ------- 0 4.0 3.1 4 47
+ 0.58624 3 4 tcp 1040 ------- 0 3.1 4.0 9 66
+ 0.58624 3 4 tcp 1040 ------- 0 3.1 4.0 10 67
- 0.59088 0 1 tcp 1040 ------- 0 0.0 1.0 8 49
- 0.59088 1 2 tcp 1040 ------- 0 1.1 2.0 8 51
- 0.59088 2 3 tcp 1040 ------- 0 2.1 3.0 8 53
- 0.59088 3 4 tcp 1040 ------- 0 3.1 4.0 8 55
r 0.59256 0 1 tcp 1040 ------- 0 0.0 1.0 6 33
+ 0.59256 1 0 ack 40 ------- 0 1.0 0.0 6 68
- 0.59256 1 0 ack 40 ------- 0 1.0 0.0 6 68
r 0.59256 1 2 tcp 1040 ------- 0 1.1 2.0 6 35
+ 0.59256 2 1 ack 40 ------- 0 2.0 1.1 6 69
- 0.59256 2 1 ack 40 ------- 0 2.0 1.1 6 69
r 0.59256 2 3 tcp 1040 ------- 0 2.1 3.0 6 37
+ 0.59256 3 2 ack 40 ------- 0 3.0 2.1 6 70
- 0.59256 3 2 ack 40 ------- 0 3.0 2.1 6 70
r 0.59256 3 4 tcp 1040 ------- 0 3.1 4.0 6 39
+ 0.59256 4 3 ack 40 ------- 0 4.0 3.1 6 71
- 0.59256 4 3 ack 40 ------- 0 4.0 3.1 6 71
r 0.59456 1 0 ack 40 ------- 0 1.0 0.0 5 56
+ 0.59456 0 1 tcp 1040 ------- 0 0.0 1.0 11 72
+ 0.59456 0 1 tcp 1040 ------- 0 0.0 1.0 12 73
r 0.59456 2 1 ack 40 ------- 0 2.0 1.1 5 57
+ 0.59456 1 2 tcp 1040 ------- 0 1.1 2.0 11 74
+ 0.59456 1 2 tcp 1040 ------- 0 1.1 2.0 12 75
r 0.59456 3 2 ack 40 ------- 0 3.0 2.1 5 58
+ 0.59456 2 3 tcp 1040 ------- 0 2.1 3.0 11 76
+ 0.59456 2 3 tcp 1040 ------- 0 2.1 3.0 12 77
r 0.59456 4 3 ack 40 ------- 0 4.0 3.1 5 59
+ 0.59456 3 4 tcp 1040 ------- 0 3.1 4.0 11 78
+ 0.59456 3 4 tcp 1040 ------- 0 3.1 4.0 12 79
- 0.5992 0 1 tcp 1040 ------- 0 0.0 1.0 9 60
- 0.5992 1 2 tcp 1040 ------- 0 1.1 2.0 9 62
- 0.5992 2 3 tcp 1040 ------- 0 2.1 3.0 9 64
- 0.5992 3 4 tcp 1040 ------- 0 3.1 4.0 9 66
r 0.60088 0 1 tcp 1040 ------- 0 0.0 1.0 7 48
+ 0.60088 1 0 ack 40 ------- 0 1.0 0.0 7 80
- 0.60088 1 0 ack 40 ------- 0 1.0 0.0 7 80
r 0.60088 1 2 tcp 1040 ------- 0 1.1 2.0 7 50
+ 0.60088 2 1 ack 40 ------- 0 2.0 1.1 7 81
- 0.60088 2 1 ack 40 ------- 0 2.0 1.1 7 81
r 0.60088 2 3 tcp 1040 ------- 0 2.1 3.0 7 52
+ 0.60088 3 2 ack 40 ------- 0 3.0 2.1 7 82
- 0.60088 3 2 ack 40 ------- 0 3.0 2.1 7 82
r 0.60088 3 4 tcp 1040 ------- 0 3.1 4.0 7 54
+ 0.60088 4 3 ack 40 ------- 0 4.0 3.1 7 83
- 0.60088 4 3 ack 40 ------- 0 4.0 3.1 7 83
r 0.60288 1 0 ack 40 ------- 0 1.0 0.0 6 68
+ 0.60288 0 1 tcp 1040 ------- 0 0.0 1.0 13 84
+ 0.60288 0 1 tcp 1040 ------- 0 0.0 1.0 14 85
r 0.60288 2 1 ack 40 ------- 0 2.0 1.1 6 69
+ 0.60288 1 2 tcp 1040 ------- 0 1.1 2.0 13 86
+ 0.60288 1 2 tcp 1040 ------- 0 1.1 2.0 14 87
r 0.60288 3 2 ack 40 ------- 0 3.0 2.1 6 70
+ 0.60288 2 3 tcp 1040 ------- 0 2.1 3.0 13 88
+ 0.60288 2 3 tcp 1040 ------- 0 2.1 3.0 14 89
r 0.60288 4 3 ack 40 ------- 0 4.0 3.1 6 71
+ 0.60288 3 4 tcp 1040 ------- 0 3.1 4.0 13 90
+ 0.60288 3 4 tcp 1040 ------- 0 3.1 4.0 14 91
- 0.60752 0 1 tcp 1040 ------- 0 0.0 1.0 10 61
- 0.60752 1 2 tcp 1040 ------- 0 1.1 2.0 10 63
- 0.60752 2 3 tcp 1040 ------- 0 2.1 3.0 10 65
- 0.60752 3 4 tcp 1040 ------- 0 3.1 4.0 10 67
r 0.6092 0 1 tcp 1040 ------- 0 0.0 1.0 8 49
+ 0.6092 1 0 ack 40 ------- 0 1.0 0.0 8 92
- 0.6092 1 0 ack 40 ------- 0 1.0 0.0 8 92
r 0.6092 1 2 tcp 1040 ------- 0 1.1 2.0 8 51
+ 0.6092 2 1 ack 40 ------- 0 2.0 1.1 8 93
- 0.6092 2 1 ack 40 ------- 0 2.0 1.1 8 93
r 0.6092 2 3 tcp 1040 ------- 0 2.1 3.0 8 53
+ 0.6092 3 2 ack 40 ------- 0 3.0 2.1 8 94
- 0.6092 3 2 ack 40 ------- 0 3.0 2.1 8 94
r 0.6092 3 4 tcp 1040 ------- 0 3.1 4.0 8 55
+ 0.6092 4 3 ack 40 ------- 0 4.0 3.1 8 95
- 0.6092 4 3 ack 40 ------- 0 4.0 3.1 8 95
r 0.6112 1 0 ack 40 ------- 0 1.0 0.0 7 80
+ 0.6112 0 1 tcp 1040 ------- 0 0.0 1.0 15 96
+ 0.6112 0 1 tcp 1040 ------- 0 0.0 1.0 16 97
r 0.6112 2 1 ack 40 ------- 0 2.0 1.1 7 81
+ 0.6112 1 2 tcp 1040 ------- 0 1.1 2.0 15 98
+ 0.6112 1 2 tcp 1040 ------- 0 1.1 2.0 16 99
r 0.6112 3 2 ack 40 ------- 0 3.0 2.1 7 82
+ 0.6112 2 3 tcp 1040 ------- 0 2.1 3.0 15 100
+ 0.6112 2 3 tcp 1040 ------- 0 2.1 3.0 16 101
r 0.6112 4 3 ack 40 ------- 0 4.0 3.1 7 83
+ 0.6112 3 4 tcp 1040 ------- 0 3.1 4.0 15 102
+ 0.6112 3 4 tcp 1040 ------- 0 3.1 4.0 16 103
- 0.61584 0 1 tcp 1040 ------- 0 0.0 1.0 11 72
- 0.61584 1 2 tcp 1040 ------- 0 1.1 2.0 11 74
- 0.61584 2 3 tcp 1040 ------- 0 2.1 3.0 11 76
- 0.61584 3 4 tcp 1040 ------- 0 3.1 4.0 11 78
r 0.61752 0 1 tcp 1040 ------- 0 0.0 1.0 9 60
+ 0.61752 1 0 ack 40 ------- 0 1.0 0.0 9 104
- 0.61752 1 0 ack 40 ------- 0 1.0 0.0 9 104
r 0.61752 1 2 tcp 1040 ------- 0 1.1 2.0 9 62
+ 0.61752 2 1 ack 40 ------- 0 2.0 1.1 9 105
- 0.61752 2 1 ack 40 ------- 0 2.0 1.1 9 105
r 0.61752 2 3 tcp 1040 ------- 0 2.1 3.0 9 64
+ 0.61752 3 2 ack 40 ------- 0 3.0 2.1 9 106
- 0.61752 3 2 ack 40 ------- 0 3.0 2.1 9 106
r 0.61752 3 4 tcp 1040 ------- 0 3.1 4.0 9 66
+ 0.61752 4 3 ack 40 ------- 0 4.0 3.1 9 107
- 0.61752 4 3 ack 40 ------- 0 4.0 3.1 9 107
r 0.61952 1 0 ack 40 ------- 0 1.0 0.0 8 92
+ 0.61952 0 1 tcp 1040 ------- 0 0.0 1.0 17 108
+ 0.61952 0 1 tcp 1040 ------- 0 0.0 1.0 18 109
r 0.61952 2 1 ack 40 ------- 0 2.0 1.1 8 93
+ 0.61952 1 2 tcp 1040 ------- 0 1.1 2.0 17 110
+ 0.61952 1 2 tcp 1040 ------- 0 1.1 2.0 18 111
r 0.61952 3 2 ack 40 ------- 0 3.0 2.1 8 94
+ 0.61952 2 3 tcp 1040 ------- 0 2.1 3.0 17 112
+ 0.61952 2 3 tcp 1040 ------- 0 2.1 3.0 18 113
r 0.61952 4 3 ack 40 ------- 0 4.0 3.1 8 95
+ 0.61952 3 4 tcp 1040 ------- 0 3.1 4.0 17 114
+ 0.61952 3 4 tcp 1040 ------- 0 3.1 4.0 18 115
- 0.62416 0 1 tcp 1040 ------- 0 0.0 1.0 12 73
- 0.62416 1 2 tcp 1040 ------- 0 1.1 2.0 12 75
- 0.62416 2 3 tcp 1040 ------- 0 2.1 3.0 12 77
- 0.62416 3 4 tcp 1040 ------- 0 3.1 4.0 12 79
r 0.62584 0 1 tcp 1040 ------- 0 0.0 1.0 10 61
+ 0.62584 1 0 ack 40 ------- 0 1.0 0.0 10 116
- 0.62584 1 0 ack 40 ------- 0 1.0 0.0 10 116
r 0.62584 1 2 tcp 1040 ------- 0 1.1 2.0 10 63
+ 0.62584 2 1 ack 40 ------- 0 2.0 1.1 10 117
- 0.62584 2 1 ack 40 ------- 0 2.0 1.1 10 117
r 0.62584 2 3 tcp 1040 ------- 0 2.1 3.0 10 65
+ 0.62584 3 2 ack 40 ------- 0 3.0 2.1 10 118
- 0.62584 3 2 ack 40 ------- 0 3.0 2.1 10 118
r 0.62584 3 4 tcp 1040 ------- 0 3.1 4.0 10 67
+ 0.62584 4 3 ack 40 ------- 0 4.0 3.1 10 119
- 0.62584 4 3 ack 40 ------- 0 4.0 3.1 10 119
r 0.62784 1 0 ack 40 ------- 0 1.0 0.0 9 104
+ 0.62784 0 1 tcp 1040 ------- 0 0.0 1.0 19 120
+ 0.62784 0 1 tcp 1040 ------- 0 0.0 1.0 20 121
r 0.62784 2 1 ack 40 ------- 0 2.0 1.1 9 105
+ 0.62784 1 2 tcp 1040 ------- 0 1.1 2.0 19 122
+ 0.62784 1 2 tcp 1040 ------- 0 1.1 2.0 20 123
r 0.62784 3 2 ack 40 ------- 0 3.0 2.1 9 106
+ 0.62784 2 3 tcp 1040 ------- 0 2.1 3.0 19 124
+ 0.62784 2 3 tcp 1040 ------- 0 2.1 3.0 20 125
r 0.62784 4 3 ack 40 ------- 0 4.0 3.1 9 107
+ 0.62784 3 4 tcp 1040 ------- 0 3.1 4.0 19 126
+ 0.62784 3 4 tcp 1040 ------- 0 3.1 4.0 20 127
- 0.63248 0 1 tcp 1040 ------- 0 0.0 1.0 13 84
- 0.63248 1 2 tcp 1040 ------- 0 1.1 2.0 13 86
- 0.63248 2 3 tcp 1040 ------- 0 2.1 3.0 13 88
- 0.63248 3 4 tcp 1040 ------- 0 3.1 4.0 13 90
r 0.63416 0 1 tcp 1040 ------- 0 0.0 1.0 11 72
+ 0.63416 1 0 ack 40 ------- 0 1.0 0.0 11 128
- 0.63416 1 0 ack 40 ------- 0 1.0 0.0 11 128
r 0.63416 1 2 tcp 1040 ------- 0 1.1 2.0 11 74
+ 0.63416 2 1 ack 40 ------- 0 2.0 1.1 11 129
- 0.63416 2 1 ack 40 ------- 0 2.0 1.1 11 129
r 0.63416 2 3 tcp 1040 ------- 0 2.1 3.0 11 76
+ 0.63416 3 2 ack 40 ------- 0 3.0 2.1 11 130
- 0.63416 3 2 ack 40 ------- 0 3.0 2.1 11 130
r 0.63416 3 4 tcp 1040 ------- 0 3.1 4.0 11 78
+ 0.63416 4 3 ack 40 ------- 0 4.0 3.1 11 131
- 0.63416 4 3 ack 40 ------- 0 4.0 3.1 11 131
r 0.63616 1 0 ack 40 ------- 0 1.0 0.0 10 116
+ 0.63616 0 1 tcp 1040 ------- 0 0.0 1.0 21 132
+ 0.63616 0 1 tcp 1040 ------- 0 0.0 1.0 22 133
r 0.63616 2 1 ack 40 ------- 0 2.0 1.1 10 117
+ 0.63616 1 2 tcp 1040 ------- 0 1.1 2.0 21 134
+ 0.63616 1 2 tcp 1040 ------- 0 1.1 2.0 22 135
r 0.63616 3 2 ack 40 ------- 0 3.0 2.1 10 118
+ 0.63616 2 3 tcp 1040 ------- 0 2.1 3.0 21 136
+ 0.63616 2 3 tcp 1040 ------- 0 2.1 3.0 22 137
r 0.63616 4 3 ack 40 ------- 0 4.0 3.1 10 119
+ 0.63616 3 4 tcp 1040 ------- 0 3.1 4.0 21 138
+ 0.63616 3 4 tcp 1040 ------- 0 3.1 4.0 22 139
- 0.6408 0 1 tcp 1040 ------- 0 0.0 1.0 14 85
- 0.6408 1 2 tcp 1040 ------- 0 1.1 2.0 14 87
- 0.6408 2 3 tcp 1040 ------- 0 2.1 3.0 14 89
- 0.6408 3 4 tcp 1040 ------- 0 3.1 4.0 14 91
r 0.64248 0 1 tcp 1040 ------- 0 0.0 1.0 12 73
+ 0.64248 1 0 ack 40 ------- 0 1.0 0.0 12 140
- 0.64248 1 0 ack 40 ------- 0 1.0 0.0 12 140
r 0.64248 1 2 tcp 1040 ------- 0 1.1 2.0 12 75
+ 0.64248 2 1 ack 40 ------- 0 2.0 1.1 12 141
- 0.64248 2 1 ack 40 ------- 0 2.0 1.1 12 141
r 0.64248 2 3 tcp 1040 ------- 0 2.1 3.0 12 77
+ 0.64248 3 2 ack 40 ------- 0 3.0 2.1 12 142
- 0.64248 3 2 ack 40 ------- 0 3.0 2.1 12 142
r 0.64248 3 4 tcp 1040 ------- 0 3.1 4.0 12 79
+ 0.64248 4 3 ack 40 ------- 0 4.0 3.1 12 143
- 0.64248 4 3 ack 40 ------- 0 4.0 3.1 12 143
r 0.64448 1 0 ack 40 ------- 0 1.0 0.0 11 128
+ 0.64448 0 1 tcp 1040 ------- 0 0.0 1.0 23 144
+ 0.64448 0 1 tcp 1040 ------- 0 0.0 1.0 24 145
r 0.64448 2 1 ack 40 ------- 0 2.0 1.1 11 129
+ 0.64448 1 2 tcp 1040 ------- 0 1.1 2.0 23 146
+ 0.64448 1 2 tcp 1040 ------- 0 1.1 2.0 24 147
r 0.64448 3 2 ack 40 ------- 0 3.0 2.1 11 130
+ 0.64448 2 3 tcp 1040 ------- 0 2.1 3.0 23 148
+ 0.64448 2 3 tcp 1040 ------- 0 2.1 3.0 24 149
r 0.64448 4 3 ack 40 ------- 0 4.0 3.1 11 131
+ 0.64448 3 4 tcp 1040 ------- 0 3.1 4.0 23 150
+ 0.64448 3 4 tcp 1040 ------- 0 3.1 4.0 24 151
- 0.64912 0 1 tcp 1040 ------- 0 0.0 1.0 15 96
- 0.64912 1 2 tcp 1040 ------- 0 1.1 2.0 15 98
- 0.64912 2 3 tcp 1040 ------- 0 2.1 3.0 15 100
- 0.64912 3 4 tcp 1040 ------- 0 3.1 4.0 15 102
r 0.6508 0 1 tcp 1040 ------- 0 0.0 1.0 13 84
+ 0.6508 1 0 ack 40 ------- 0 1.0 0.0 13 152
- 0.6508 1 0 ack 40 ------- 0 1.0 0.0 13 152
r 0.6508 1 2 tcp 1040 ------- 0 1.1 2.0 13 86
+ 0.6508 2 1 ack 40 ------- 0 2.0 1.1 13 153
- 0.6508 2 1 ack 40 ------- 0 2.0 1.1 13 153
r 0.6508 2 3 tcp 1040 ------- 0 2.1 3.0 13 88
+ 0.6508 3 2 ack 40 ------- 0 3.0 2.1 13 154
- 0.6508 3 2 ack 40 ------- 0 3.0 2.1 13 154
r 0.6508 3 4 tcp 1040 ------- 0 3.1 4.0 13 90
+ 0.6508 4 3 ack 40 ------- 0 4.0 3.1 13 155
- 0.6508 4 3 ack 40 ------- 0 4.0 3.1 13 155
r 0.6528 1 0 ack 40 ------- 0 1.0 0.0 12 140
+ 0.6528 0 1 tcp 1040 ------- 0 0.0 1.0 25 156
+ 0.6528 0 1 tcp 1040 ------- 0 0.0 1.0 26 157
r 0.6528 2 1 ack 40 ------- 0 2.0 1.1 12 141
+ 0.6528 1 2 tcp 1040 ------- 0 1.1 2.0 25 158
+ 0.6528 1 2 tcp 1040 ------- 0 1.1 2.0 26 159
r 0.6528 3 2 ack 40 ------- 0 3.0 2.1 12 142
+ 0.6528 2 3 tcp 1040 ------- 0 2.1 3.0 25 160
+ 0.6528 2 3 tcp 1040 ------- 0 2.1 3.0 26 161
r 0.6528 4 3 ack 40 ------- 0 4.0 3.1 12 143
+ 0.6528 3 4 tcp 1040 ------- 0 3.1 4.0 25 162
+ 0.6528 3 4 tcp 1040 ------- 0 3.1 4.0 26 163
- 0.65744 0 1 tcp 1040 ------- 0 0.0 1.0 16 97
- 0.65744 1 2 tcp 1040 ------- 0 1.1 2.0 16 99
- 0.65744 2 3 tcp 1040 ------- 0 2.1 3.0 16 101
- 0.65744 3 4 tcp 1040 ------- 0 3.1 4.0 16 103
r 0.65912 0 1 tcp 1040 ------- 0 0.0 1.0 14 85
+ 0.65912 1 0 ack 40 ------- 0 1.0 0.0 14 164
- 0.65912 1 0 ack 40 ------- 0 1.0 0.0 14 164
r 0.65912 1 2 tcp 1040 ------- 0 1.1 2.0 14 87
+ 0.65912 2 1 ack 40 ------- 0 2.0 1.1 14 165
- 0.65912 2 1 ack 40 ------- 0 2.0 1.1 14 165
r 0.65912 2 3 tcp 1040 ------- 0 2.1 3.0 14 89
+ 0.65912 3 2 ack 40 ------- 0 3.0 2.1 14 166
- 0.65912 3 2 ack 40 ------- 0 3.0 2.1 14 166
r 0.65912 3 4 tcp 1040 ------- 0 3.1 4.0 14 91
+ 0.65912 4 3 ack 40 ------- 0 4.0 3.1 14 167
- 0.65912 4 3 ack 40 ------- 0 4.0 3.1 14 167
r 0.66112 1 0 ack 40 ------- 0 1.0 0.0 13 152
+ 0.66112 0 1 tcp 1040 ------- 0 0.0 1.0 27 168
+ 0.66112 0 1 tcp 1040 ------- 0 0.0 1.0 28 169
r 0.66112 2 1 ack 40 ------- 0 2.0 1.1 13 153
+ 0.66112 1 2 tcp 1040 ------- 0 1.1 2.0 27 170
+ 0.66112 1 2 tcp 1040 ------- 0 1.1 2.0 28 171
r 0.66112 3 2 ack 40 ------- 0 3.0 2.1 13 154
+ 0.66112 2 3 tcp 1040 ------- 0 2.1 3.0 27 172
+ 0.66112 2 3 tcp 1040 ------- 0 2.1 3.0 28 173
r 0.66112 4 3 ack 40 ------- 0 4.0 3.1 13 155
+ 0.66112 3 4 tcp 1040 ------- 0 3.1 4.0 27 174
+ 0.66112 3 4 tcp 1040 ------- 0 3.1 4.0 28 175
- 0.66576 0 1 tcp 1040 ------- 0 0.0 1.0 17 108
- 0.66576 1 2 tcp 1040 ------- 0 1.1 2.0 17 110
- 0.66576 2 3 tcp 1040 ------- 0 2.1 3.0 17 112
- 0.66576 3 4 tcp 1040 ------- 0 3.1 4.0 17 114
r 0.66744 0 1 tcp 1040 ------- 0 0.0 1.0 15 96
+ 0.66744 1 0 ack 40 ------- 0 1.0 0.0 15 176
- 0.66744 1 0 ack 40 ------- 0 1.0 0.0 15 176
r 0.66744 1 2 tcp 1040 ------- 0 1.1 2.0 15 98
+ 0.66744 2 1 ack 40 ------- 0 2.0 1.1 15 177
- 0.66744 2 1 ack 40 ------- 0 2.0 1.1 15 177
r 0.66744 2 3 tcp 1040 ------- 0 2.1 3.0 15 100
+ 0.66744 3 2 ack 40 ------- 0 3.0 2.1 15 178
- 0.66744 3 2 ack 40 ------- 0 3.0 2.1 15 178
r 0.66744 3 4 tcp 1040 ------- 0 3.1 4.0 15 102
+ 0.66744 4 3 ack 40 ------- 0 4.0 3.1 15 179
- 0.66744 4 3 ack 40 ------- 0 4.0 3.1 15 179
r 0.66944 1 0 ack 40 ------- 0 1.0 0.0 14 164
+ 0.66944 0 1 tcp 1040 ------- 0 0.0 1.0 29 180
+ 0.66944 0 1 tcp 1040 ------- 0 0.0 1.0 30 181
r 0.66944 2 1 ack 40 ------- 0 2.0 1.1 14 165
+ 0.66944 1 2 tcp 1040 ------- 0 1.1 2.0 29 182
+ 0.66944 1 2 tcp 1040 ------- 0 1.1 2.0 30 183
r 0.66944 3 2 ack 40 ------- 0 3.0 2.1 14 166
+ 0.66944 2 3 tcp 1040 ------- 0 2.1 3.0 29 184
+ 0.66944 2 3 tcp 1040 ------- 0 2.1 3.0 30 185
r 0.66944 4 3 ack 40 ------- 0 4.0 3.1 14 167
+ 0.66944 3 4 tcp 1040 ------- 0 3.1 4.0 29 186
+ 0.66944 3 4 tcp 1040 ------- 0 3.1 4.0 30 187
- 0.67408 0 1 tcp 1040 ------- 0 0.0 1.0 18 109
- 0.67408 1 2 tcp 1040 ------- 0 1.1 2.0 18 111
- 0.67408 2 3 tcp 1040 ------- 0 2.1 3.0 18 113
- 0.67408 3 4 tcp 1040 ------- 0 3.1 4.0 18 115
r 0.67576 0 1 tcp 1040 ------- 0 0.0 1.0 16 97
+ 0.67576 1 0 ack 40 ------- 0 1.0 0.0 16 188
- 0.67576 1 0 ack 40 ------- 0 1.0 0.0 16 188
r 0.67576 1 2 tcp 1040 ------- 0 1.1 2.0 16 99
+ 0.67576 2 1 ack 40 ------- 0 2.0 1.1 16 189
- 0.67576 2 1 ack 40 ------- 0 2.0 1.1 16 189
r 0.67576 2 3 tcp 1040 ------- 0 2.1 3.0 16 101
+ 0.67576 3 2 ack 40 ------- 0 3.0 2.1 16 190
- 0.67576 3 2 ack 40 ------- 0 3.0 2.1 16 190
r 0.67576 3 4 tcp 1040 ------- 0 3.1 4.0 16 103
+ 0.67576 4 3 ack 40 ------- 0 4.0 3.1 16 191
- 0.67576 4 3 ack 40 ------- 0 4.0 3.1 16 191
r 0.67776 1 0 ack 40 ------- 0 1.0 0.0 15 176
+ 0.67776 0 1 tcp 1040 ------- 0 0.0 1.0 31 192
+ 0.67776 0 1 tcp 1040 ------- 0 0.0 1.0 32 193
r 0.67776 2 1 ack 40 ------- 0 2.0 1.1 15 177
+ 0.67776 1 2 tcp 1040 ------- 0 1.1 2.0 31 194
+ 0.67776 1 2 tcp 1040 ------- 0 1.1 2.0 32 195
r 0.67776 3 2 ack 40 ------- 0 3.0 2.1 15 178
+ 0.67776 2 3 tcp 1040 ------- 0 2.1 3.0 31 196
+ 0.67776 2 3 tcp 1040 ------- 0 2.1 3.0 32 197
r 0.67776 4 3 ack 40 ------- 0 4.0 3.1 15 179
+ 0.67776 3 4 tcp 1040 ------- 0 3.1 4.0 31 198
+ 0.67776 3 4 tcp 1040 ------- 0 3.1 4.0 32 199
- 0.6824 0 1 tcp 1040 ------- 0 0.0 1.0 19 120
- 0.6824 1 2 tcp 1040 ------- 0 1.1 2.0 19 122
- 0.6824 2 3 tcp 1040 ------- 0 2.1 3.0 19 124
- 0.6824 3 4 tcp 1040 ------- 0 3.1 4.0 19 126
r 0.68408 0 1 tcp 1040 ------- 0 0.0 1.0 17 108
+ 0.68408 1 0 ack 40 ------- 0 1.0 0.0 17 200
- 0.68408 1 0 ack 40 ------- 0 1.0 0.0 17 200
r 0.68408 1 2 tcp 1040 ------- 0 1.1 2.0 17 110
+ 0.68408 2 1 ack 40 ------- 0 2.0 1.1 17 201
- 0.68408 2 1 ack 40 ------- 0 2.0 1.1 17 201
r 0.68408 2 3 tcp 1040 ------- 0 2.1 3.0 17 112
+ 0.68408 3 2 ack 40 ------- 0 3.0 2.1 17 202
- 0.68408 3 2 ack 40 ------- 0 3.0 2.1 17 202
r 0.68408 3 4 tcp 1040 ------- 0 3.1 4.0 17 114
+ 0.68408 4 3 ack 40 ------- 0 4.0 3.1 17 203
- 0.68408 4 3 ack 40 ------- 0 4.0 3.1 17 203
r 0.68608 1 0 ack 40 ------- 0 1.0 0.0 16 188
+ 0.68608 0 1 tcp 1040 ------- 0 0.0 1.0 33 204
+ 0.68608 0 1 tcp 1040 ------- 0 0.0 1.0 34 205
r 0.68608 2 1 ack 40 ------- 0 2.0 1.1 16 189
+ 0.68608 1 2 tcp 1040 ------- 0 1.1 2.0 33 206
+ 0.68608 1 2 tcp 1040 ------- 0 1.1 2.0 34 207
r 0.68608 3 2 ack 40 ------- 0 3.0 2.1 16 190
+ 0.68608 2 3 tcp 1040 ------- 0 2.1 3.0 33 208
+ 0.68608 2 3 tcp 1040 ------- 0 2.1 3.0 34 209
r 0.68608 4 3 ack 40 ------- 0 4.0 3.1 16 191
+ 0.68608 3 4 tcp 1040 ------- 0 3.1 4.0 33 210
+ 0.68608 3 4 tcp 1040 ------- 0 3.1 4.0 34 211
- 0.69072 0 1 tcp 1040 ------- 0 0.0 1.0 20 121
- 0.69072 1 2 tcp 1040 ------- 0 1.1 2.0 20 123
- 0.69072 2 3 tcp 1040 ------- 0 2.1 3.0 20 125
- 0.69072 3 4 tcp 1040 ------- 0 3.1 4.0 20 127
r 0.6924 0 1 tcp 1040 ------- 0 0.0 1.0 18 109
+ 0.6924 1 0 ack 40 ------- 0 1.0 0.0 18 212
- 0.6924 1 0 ack 40 ------- 0 1.0 0.0 18 212
r 0.6924 1 2 tcp 1040 ------- 0 1.1 2.0 18 111
+ 0.6924 2 1 ack 40 ------- 0 2.0 1.1 18 213
- 0.6924 2 1 ack 40 ------- 0 2.0 1.1 18 213
r 0.6924 2 3 tcp 1040 ------- 0 2.1 3.0 18 113
+ 0.6924 3 2 ack 40 ------- 0 3.0 2.1 18 214
- 0.6924 3 2 ack 40 ------- 0 3.0 2.1 18 214
r 0.6924 3 4 tcp 1040 ------- 0 3.1 4.0 18 115
+ 0.6924 4 3 ack 40 ------- 0 4.0 3.1 18 215
- 0.6924 4 3 ack 40 ------- 0 4.0 3.1 18 215
r 0.6944 1 0 ack 40 ------- 0 1.0 0.0 17 200
+ 0.6944 0 1 tcp 1040 ------- 0 0.0 1.0 35 216
+ 0.6944 0 1 tcp 1040 ------- 0 0.0 1.0 36 217
r 0.6944 2 1 ack 40 ------- 0 2.0 1.1 17 201
+ 0.6944 1 2 tcp 1040 ------- 0 1.1 2.0 35 218
+ 0.6944 1 2 tcp 1040 ------- 0 1.1 2.0 36 219
r 0.6944 3 2 ack 40 ------- 0 3.0 2.1 17 202
+ 0.6944 2 3 tcp 1040 ------- 0 2.1 3.0 35 220
+ 0.6944 2 3 tcp 1040 ------- 0 2.1 3.0 36 221
r 0.6944 4 3 ack 40 ------- 0 4.0 3.1 17 203
+ 0.6944 3 4 tcp 1040 ------- 0 3.1 4.0 35 222
+ 0.6944 3 4 tcp 1040 ------- 0 3.1 4.0 36 223
- 0.69904 0 1 tcp 1040 ------- 0 0.0 1.0 21 132
- 0.69904 1 2 tcp 1040 ------- 0 1.1 2.0 21 134
- 0.69904 2 3 tcp 1040 ------- 0 2.1 3.0 21 136
- 0.69904 3 4 tcp 1040 ------- 0 3.1 4.0 21 138
r 0.70072 0 1 tcp 1040 ------- 0 0.0 1.0 19 120
+ 0.70072 1 0 ack 40 ------- 0 1.0 0.0 19 224
- 0.70072 1 0 ack 40 ------- 0 1.0 0.0 19 224
r 0.70072 1 2 tcp 1040 ------- 0 1.1 2.0 19 122
+ 0.70072 2 1 ack 40 ------- 0 2.0 1.1 19 225
- 0.70072 2 1 ack 40 ------- 0 2.0 1.1 19 225
r 0.70072 2 3 tcp 1040 ------- 0 2.1 3.0 19 124
+ 0.70072 3 2 ack 40 ------- 0 3.0 2.1 19 226
- 0.70072 3 2 ack 40 ------- 0 3.0 2.1 19 226
r 0.70072 3 4 tcp 1040 ------- 0 3.1 4.0 19 126
+ 0.70072 4 3 ack 40 ------- 0 4.0 3.1 19 227
- 0.70072 4 3 ack 40 ------- 0 4.0 3.1 19 227
r 0.70272 1 0 ack 40 ------- 0 1.0 0.0 18 212
+ 0.70272 0 1 tcp 1040 ------- 0 0.0 1.0 37 228
+ 0.70272 0 1 tcp 1040 ------- 0 0.0 1.0 38 229
r 0.70272 2 1 ack 40 ------- 0 2.0 1.1 18 213
+ 0.70272 1 2 tcp 1040 ------- 0 1.1 2.0 37 230
+ 0.70272 1 2 tcp 1040 ------- 0 1.1 2.0 38 231
r 0.70272 3 2 ack 40 ------- 0 3.0 2.1 18 214
+ 0.70272 2 3 tcp 1040 ------- 0 2.1 3.0 37 232
+ 0.70272 2 3 tcp 1040 ------- 0 2.1 3.0 38 233
r 0.70272 4 3 ack 40 ------- 0 4.0 3.1 18 215
+ 0.70272 3 4 tcp 1040 ------- 0 3.1 4.0 37 234
+ 0.70272 3 4 tcp 1040 ------- 0 3.1 4.0 38 235
- 0.70736 0 1 tcp 1040 ------- 0 0.0 1.0 22 133
- 0.70736 1 2 tcp 1040 ------- 0 1.1 2.0 22 135
- 0.70736 2 3 tcp 1040 ------- 0 2.1 3.0 22 137
- 0.70736 3 4 tcp 1040 ------- 0 3.1 4.0 22 139
r 0.70904 0 1 tcp 1040 ------- 0 0.0 1.0 20 121
+ 0.70904 1 0 ack 40 ------- 0 1.0 0.0 20 236
- 0.70904 1 0 ack 40 ------- 0 1.0 0.0 20 236
r 0.70904 1 2 tcp 1040 ------- 0 1.1 2.0 20 123
+ 0.70904 2 1 ack 40 ------- 0 2.0 1.1 20 237
- 0.70904 2 1 ack 40 ------- 0 2.0 1.1 20 237
r 0.70904 2 3 tcp 1040 ------- 0 2.1 3.0 20 125
+ 0.70904 3 2 ack 40 ------- 0 3.0 2.1 20 238
- 0.70904 3 2 ack 40 ------- 0 3.0 2.1 20 238
r 0.70904 3 4 tcp 1040 ------- 0 3.1 4.0 20 127
+ 0.70904 4 3 ack 40 ------- 0 4.0 3.1 20 239
- 0.70904 4 3 ack 40 ------- 0 4.0 3.1 20 239
r 0.71104 1 0 ack 40 ------- 0 1.0 0.0 19 224
+ 0.71104 0 1 tcp 1040 ------- 0 0.0 1.0 39 240
r 0.71104 2 1 ack 40 ------- 0 2.0 1.1 19 225
+ 0.71104 1 2 tcp 1040 ------- 0 1.1 2.0 39 241
r 0.71104 3 2 ack 40 ------- 0 3.0 2.1 19 226
+ 0.71104 2 3 tcp 1040 ------- 0 2.1 3.0 39 242
r 0.71104 4 3 ack 40 ------- 0 4.0 3.1 19 227
+ 0.71104 3 4 tcp 1040 ------- 0 3.1 4.0 39 243
- 0.71568 0 1 tcp 1040 ------- 0 0.0 1.0 23 144
- 0.71568 1 2 tcp 1040 ------- 0 1.1 2.0 23 146
- 0.71568 2 3 tcp 1040 ------- 0 2.1 3.0 23 148
- 0.71568 3 4 tcp 1040 ------- 0 3.1 4.0 23 150
r 0.71736 0 1 tcp 1040 ------- 0 0.0 1.0 21 132
+ 0.71736 1 0 ack 40 ------- 0 1.0 0.0 21 244
- 0.71736 1 0 ack 40 ------- 0 1.0 0.0 21 244
r 0.71736 1 2 tcp 1040 ------- 0 1.1 2.0 21 134
+ 0.71736 2 1 ack 40 ------- 0 2.0 1.1 21 245
- 0.71736 2 1 ack 40 ------- 0 2.0 1.1 21 245
r 0.71736 2 3 tcp 1040 ------- 0 2.1 3.0 21 136
+ 0.71736 3 2 ack 40 ------- 0 3.0 2.1 21 246
- 0.71736 3 2 ack 40 ------- 0 3.0 2.1 21 246
r 0.71736 3 4 tcp 1040 ------- 0 3.1 4.0 21 138
+ 0.71736 4 3 ack 40 ------- 0 4.0 3.1 21 247
- 0.71736 4 3 ack 40 ------- 0 4.0 3.1 21 247
r 0.71936 1 0 ack 40 ------- 0 1.0 0.0 20 236
+ 0.71936 0 1 tcp 1040 ------- 0 0.0 1.0 40 248
r 0.71936 2 1 ack 40 ------- 0 2.0 1.1 20 237
+ 0.71936 1 2 tcp 1040 ------- 0 1.1 2.0 40 249
r 0.71936 3 2 ack 40 ------- 0 3.0 2.1 20 238
+ 0.71936 2 3 tcp 1040 ------- 0 2.1 3.0 40 250
r 0.71936 4 3 ack 40 ------- 0 4.0 3.1 20 239
+ 0.71936 3 4 tcp 1040 ------- 0 3.1 4.0 40 251
- 0.724 0 1 tcp 1040 ------- 0 0.0 1.0 24 145
- 0.724 1 2 tcp 1040 ------- 0 1.1 2.0 24 147
- 0.724 2 3 tcp 1040 ------- 0 2.1 3.0 24 149
- 0.724 3 4 tcp 1040 ------- 0 3.1 4.0 24 151
r 0.72568 0 1 tcp 1040 ------- 0 0.0 1.0 22 133
+ 0.72568 1 0 ack 40 ------- 0 1.0 0.0 22 252
- 0.72568 1 0 ack 40 ------- 0 1.0 0.0 22 252
r 0.72568 1 2 tcp 1040 ------- 0 1.1 2.0 22 135
+ 0.72568 2 1 ack 40 ------- 0 2.0 1.1 22 253
- 0.72568 2 1 ack 40 ------- 0 2.0 1.1 22 253
r 0.72568 2 3 tcp 1040 ------- 0 2.1 3.0 22 137
+ 0.72568 3 2 ack 40 ------- 0 3.0 2.1 22 254
- 0.72568 3 2 ack 40 ------- 0 3.0 2.1 22 254
r 0.72568 3 4 tcp 1040 ------- 0 3.1 4.0 22 139
+ 0.72568 4 3 ack 40 ------- 0 4.0 3.1 22 255
- 0.72568 4 3 ack 40 ------- 0 4.0 3.1 22 255
r 0.72768 1 0 ack 40 ------- 0 1.0 0.0 21 244
+ 0.72768 0 1 tcp 1040 ------- 0 0.0 1.0 41 256
r 0.72768 2 1 ack 40 ------- 0 2.0 1.1 21 245
+ 0.72768 1 2 tcp 1040 ------- 0 1.1 2.0 41 257
r 0.72768 3 2 ack 40 ------- 0 3.0 2.1 21 246
+ 0.72768 2 3 tcp 1040 ------- 0 2.1 3.0 41 258
r 0.72768 4 3 ack 40 ------- 0 4.0 3.1 21 247
+ 0.72768 3 4 tcp 1040 ------- 0 3.1 4.0 41 259
- 0.73232 0 1 tcp 1040 ------- 0 0.0 1.0 25 156
- 0.73232 1 2 tcp 1040 ------- 0 1.1 2.0 25 158
- 0.73232 2 3 tcp 1040 ------- 0 2.1 3.0 25 160
- 0.73232 3 4 tcp 1040 ------- 0 3.1 4.0 25 162
r 0.734 0 1 tcp 1040 ------- 0 0.0 1.0 23 144
+ 0.734 1 0 ack 40 ------- 0 1.0 0.0 23 260
- 0.734 1 0 ack 40 ------- 0 1.0 0.0 23 260
r 0.734 1 2 tcp 1040 ------- 0 1.1 2.0 23 146
+ 0.734 2 1 ack 40 ------- 0 2.0 1.1 23 261
- 0.734 2 1 ack 40 ------- 0 2.0 1.1 23 261
r 0.734 2 3 tcp 1040 ------- 0 2.1 3.0 23 148
+ 0.734 3 2 ack 40 ------- 0 3.0 2.1 23 262
- 0.734 3 2 ack 40 ------- 0 3.0 2.1 23 262
r 0.734 3 4 tcp 1040 ------- 0 3.1 4.0 23 150
+ 0.734 4 3 ack 40 ------- 0 4.0 3.1 23 263
- 0.734 4 3 ack 40 ------- 0 4.0 3.1 23 263
r 0.736 1 0 ack 40 ------- 0 1.0 0.0 22 252
+ 0.736 0 1 tcp 1040 ------- 0 0.0 1.0 42 264
r 0.736 2 1 ack 40 ------- 0 2.0 1.1 22 253
+ 0.736 1 2 tcp 1040 ------- 0 1.1 2.0 42 265
r 0.736 3 2 ack 40 ------- 0 3.0 2.1 22 254